<?xml version="1.0" encoding="UTF-8"?>

<!-- generated on 2026-02-13 13:49:20 by Eclipse SUMO GUI Version 1.23.1
<sumoConfiguration xmlns:xsi="http://www.w3.org/2001/XMLSchema-instance" xsi:noNamespaceSchemaLocation="http://sumo.dlr.de/xsd/sumoConfiguration.xsd">

    <input>
        <net-file value="/home/yilinwang/San Jose GTC Demo/san_jose_downtown_gtc/osm_modified.net.xml"/>
        <route-files value="/home/yilinwang/San Jose GTC Demo/san_jose_downtown_gtc/directional_traffic.rou.xml"/>
        <additional-files value="/home/yilinwang/San Jose GTC Demo/san_jose_downtown_gtc/osm.poly.xml.gz,/home/yilinwang/San Jose GTC Demo/san_jose_downtown_gtc/ osm_new.tls.xml"/>
    </input>

    <output>
        <tripinfo-output value="/home/yilinwang/San Jose GTC Demo/traffic_data_analysis/delay_result/tripinfo_opt_EB_thr_obstacle.xml"/>
        <statistic-output value="/home/yilinwang/San Jose GTC Demo/traffic_data_analysis/delay_result/statistic_opt_EB_thr_obstacle.xml"/>
    </output>

    <time>
        <end value="1800"/>
        <step-length value="0.1"/>
    </time>

    <processing>
        <lateral-resolution value="0.2"/>
        <ignore-route-errors value="true"/>
        <time-to-teleport value="-1"/>
        <tls.actuated.jam-threshold value="30"/>
    </processing>

    <routing>
        <device.rerouting.probability value="1.0"/>
        <device.rerouting.period value="30"/>
        <device.rerouting.pre-period value="0"/>
        <device.rerouting.adaptation-steps value="18"/>
        <device.rerouting.adaptation-interval value="10"/>
        <device.rerouting.with-taz value="false"/>
    </routing>

    <report>
        <verbose value="true"/>
        <duration-log.statistics value="true"/>
        <no-step-log value="true"/>
    </report>

    <traci_server>
        <remote-port value="40677"/>
    </traci_server>

    <gui_only>
        <gui-settings-file value="/home/yilinwang/San Jose GTC Demo/san_jose_downtown_gtc/osm.view.xml"/>
        <quit-on-end value="true"/>
        <start value="true"/>
        <delay value="40"/>
        <window-size value="1920,1440"/>
    </gui_only>

</sumoConfiguration>
-->

<tripinfos xmlns:xsi="http://www.w3.org/2001/XMLSchema-instance" xsi:noNamespaceSchemaLocation="http://sumo.dlr.de/xsd/tripinfo_file.xsd">
    <tripinfo id="flow_ew_east_right.0" depart="2.70" departLane="-360446682#0_1" departPos="4.60" departPosLat="0.00" departSpeed="0.00" departDelay="2.70" arrival="54.90" arrivalLane="417034088#0_1" arrivalPos="26.74" arrivalPosLat="0.00" arrivalSpeed="14.07" duration="52.20" routeLength="419.49" waitingTime="0.00" waitingCount="0" stopTime="0.00" timeLoss="10.41" rerouteNo="0" devices="tripinfo_flow_ew_east_right.0 routing_flow_ew_east_right.0" vType="car_conservative" speedFactor="1.01" vaporized=""/>
    <tripinfo id="flow_ew_west_right.0" depart="2.60" departLane="-157781953#2_1" departPos="4.60" departPosLat="0.00" departSpeed="0.00" departDelay="2.60" arrival="65.10" arrivalLane="157782193#2_1" arrivalPos="52.61" arrivalPosLat="0.00" arrivalSpeed="15.54" duration="62.50" routeLength="489.77" waitingTime="2.90" waitingCount="1" stopTime="0.00" timeLoss="20.07" rerouteNo="0" devices="tripinfo_flow_ew_west_right.0 routing_flow_ew_west_right.0" vType="car_normal" speedFactor="1.12" vaporized=""/>
    <tripinfo id="flow_ew_east_straight.0" depart="0.00" departLane="-360446682#0_1" departPos="4.60" departPosLat="0.00" departSpeed="0.00" departDelay="0.00" arrival="66.60" arrivalLane="-416901218#1_1" arrivalPos="57.30" arrivalPosLat="0.00" arrivalSpeed="7.87" duration="66.60" routeLength="484.94" waitingTime="0.20" waitingCount="1" stopTime="0.00" timeLoss="5.36" rerouteNo="0" devices="tripinfo_flow_ew_east_straight.0 routing_flow_ew_east_straight.0" vType="car_normal" speedFactor="0.89" vaporized=""/>
    <tripinfo id="flow_ew_east_straight.2" depart="6.90" departLane="-360446682#0_1" departPos="4.60" departPosLat="0.00" departSpeed="0.00" departDelay="0.04" arrival="68.50" arrivalLane="-416901218#1_1" arrivalPos="57.30" arrivalPosLat="0.00" arrivalSpeed="9.18" duration="61.60" routeLength="484.94" waitingTime="0.00" waitingCount="0" stopTime="0.00" timeLoss="9.41" rerouteNo="0" devices="tripinfo_flow_ew_east_straight.2 routing_flow_ew_east_straight.2" vType="car_normal" speedFactor="1.04" vaporized=""/>
    <tripinfo id="flow_ew_west_straight.1" depart="3.50" departLane="-157781953#2_2" departPos="4.60" departPosLat="0.00" departSpeed="0.00" departDelay="0.07" arrival="70.70" arrivalLane="417034218#1_2" arrivalPos="51.54" arrivalPosLat="0.00" arrivalSpeed="8.65" duration="67.20" routeLength="480.39" waitingTime="1.90" waitingCount="1" stopTime="0.00" timeLoss="12.07" rerouteNo="0" devices="tripinfo_flow_ew_west_straight.1 routing_flow_ew_west_straight.1" vType="car_normal" speedFactor="0.97" vaporized=""/>
    <tripinfo id="flow_ew_west_straight.0" depart="0.00" departLane="-157781953#2_1" departPos="5.00" departPosLat="0.00" departSpeed="0.00" departDelay="0.00" arrival="71.10" arrivalLane="417034218#1_1" arrivalPos="51.54" arrivalPosLat="0.00" arrivalSpeed="8.18" duration="71.10" routeLength="479.99" waitingTime="7.70" waitingCount="1" stopTime="0.00" timeLoss="12.89" rerouteNo="0" devices="tripinfo_flow_ew_west_straight.0 routing_flow_ew_west_straight.0" vType="suv_conservative" speedFactor="0.92" vaporized=""/>
    <tripinfo id="flow_ew_west_right.1" depart="19.00" departLane="-157781953#2_1" departPos="5.00" departPosLat="0.00" departSpeed="0.00" departDelay="0.05" arrival="74.60" arrivalLane="157782193#2_1" arrivalPos="52.61" arrivalPosLat="0.00" arrivalSpeed="15.54" duration="55.60" routeLength="489.37" waitingTime="0.00" waitingCount="0" stopTime="0.00" timeLoss="13.16" rerouteNo="0" devices="tripinfo_flow_ew_west_right.1 routing_flow_ew_west_right.1" vType="suv_conservative" speedFactor="1.12" vaporized=""/>
    <tripinfo id="flow_ew_west_straight.3" depart="10.30" departLane="-157781953#2_2" departPos="4.60" departPosLat="0.00" departSpeed="0.00" departDelay="0.01" arrival="77.90" arrivalLane="417034218#1_2" arrivalPos="51.54" arrivalPosLat="0.00" arrivalSpeed="7.78" duration="67.60" routeLength="480.39" waitingTime="0.00" waitingCount="0" stopTime="0.00" timeLoss="5.97" rerouteNo="0" devices="tripinfo_flow_ew_west_straight.3 routing_flow_ew_west_straight.3" vType="car_conservative" speedFactor="0.87" vaporized=""/>
    <tripinfo id="flow_ew_west_straight.5" depart="17.20" departLane="-157781953#2_2" departPos="4.60" departPosLat="0.00" departSpeed="0.00" departDelay="0.06" arrival="79.30" arrivalLane="417034218#1_2" arrivalPos="51.54" arrivalPosLat="0.00" arrivalSpeed="10.17" duration="62.10" routeLength="480.39" waitingTime="0.00" waitingCount="0" stopTime="0.00" timeLoss="15.51" rerouteNo="0" devices="tripinfo_flow_ew_west_straight.5 routing_flow_ew_west_straight.5" vType="car_aggressive" speedFactor="1.15" vaporized=""/>
    <tripinfo id="flow_ew_west_straight.2" depart="6.90" departLane="-157781953#2_1" departPos="4.60" departPosLat="0.00" departSpeed="0.00" departDelay="0.04" arrival="80.70" arrivalLane="417034218#1_1" arrivalPos="51.54" arrivalPosLat="0.00" arrivalSpeed="7.35" duration="73.80" routeLength="480.39" waitingTime="0.00" waitingCount="0" stopTime="0.00" timeLoss="8.73" rerouteNo="0" devices="tripinfo_flow_ew_west_straight.2 routing_flow_ew_west_straight.2" vType="car_conservative" speedFactor="0.83" vaporized=""/>
    <tripinfo id="flow_ew_west_straight.6" depart="20.80" departLane="-157781953#2_2" departPos="8.60" departPosLat="0.00" departSpeed="0.00" departDelay="0.23" arrival="82.30" arrivalLane="417034218#1_2" arrivalPos="51.54" arrivalPosLat="0.00" arrivalSpeed="8.99" duration="61.50" routeLength="476.39" waitingTime="0.00" waitingCount="0" stopTime="0.00" timeLoss="8.67" rerouteNo="0" devices="tripinfo_flow_ew_west_straight.6 routing_flow_ew_west_straight.6" vType="truck_delivery" speedFactor="1.01" vaporized=""/>
    <tripinfo id="flow_ew_west_straight.4" depart="13.80" departLane="-157781953#2_1" departPos="4.60" departPosLat="0.00" departSpeed="0.00" departDelay="0.08" arrival="82.50" arrivalLane="417034218#1_1" arrivalPos="51.54" arrivalPosLat="0.00" arrivalSpeed="9.99" duration="68.70" routeLength="480.39" waitingTime="0.00" waitingCount="0" stopTime="0.00" timeLoss="21.21" rerouteNo="0" devices="tripinfo_flow_ew_west_straight.4 routing_flow_ew_west_straight.4" vType="car_normal" speedFactor="1.13" vaporized=""/>
    <tripinfo id="flow_ew_west_straight.8" depart="27.50" departLane="-157781953#2_2" departPos="5.00" departPosLat="0.00" departSpeed="0.00" departDelay="0.07" arrival="85.00" arrivalLane="417034218#1_2" arrivalPos="51.54" arrivalPosLat="0.00" arrivalSpeed="9.52" duration="57.50" routeLength="479.99" waitingTime="0.00" waitingCount="0" stopTime="0.00" timeLoss="7.13" rerouteNo="0" devices="tripinfo_flow_ew_west_straight.8 routing_flow_ew_west_straight.8" vType="suv_conservative" speedFactor="1.07" vaporized=""/>
    <tripinfo id="flow_ew_west_straight.10" depart="34.30" departLane="-157781953#2_2" departPos="2.30" departPosLat="0.00" departSpeed="0.00" departDelay="0.01" arrival="89.40" arrivalLane="417034218#1_2" arrivalPos="51.54" arrivalPosLat="0.00" arrivalSpeed="9.02" duration="55.10" routeLength="482.69" waitingTime="0.00" waitingCount="0" stopTime="0.00" timeLoss="2.19" rerouteNo="0" devices="tripinfo_flow_ew_west_straight.10 routing_flow_ew_west_straight.10" vType="motorcycle_normal" speedFactor="1.02" vaporized=""/>
    <tripinfo id="flow_ew_west_straight.7" depart="24.10" departLane="-157781953#2_1" departPos="2.30" departPosLat="0.00" departSpeed="0.00" departDelay="0.10" arrival="91.00" arrivalLane="417034218#1_1" arrivalPos="51.54" arrivalPosLat="0.00" arrivalSpeed="7.37" duration="66.90" routeLength="482.69" waitingTime="0.00" waitingCount="0" stopTime="0.00" timeLoss="2.22" rerouteNo="0" devices="tripinfo_flow_ew_west_straight.7 routing_flow_ew_west_straight.7" vType="motorcycle_normal" speedFactor="0.83" vaporized=""/>
    <tripinfo id="flow_ew_east_straight.3" depart="10.70" departLane="-360446682#0_1" departPos="12.10" departPosLat="0.00" departSpeed="0.00" departDelay="0.41" arrival="94.30" arrivalLane="-416901218#1_1" arrivalPos="57.30" arrivalPosLat="0.00" arrivalSpeed="8.92" duration="83.60" routeLength="477.44" waitingTime="15.20" waitingCount="2" stopTime="0.00" timeLoss="30.11" rerouteNo="0" devices="tripinfo_flow_ew_east_straight.3 routing_flow_ew_east_straight.3" vType="bus_transit" speedFactor="1.00" vaporized=""/>
    <tripinfo id="flow_ew_east_straight.4" depart="14.50" departLane="-360446682#0_1" departPos="4.60" departPosLat="0.00" departSpeed="0.00" departDelay="0.78" arrival="97.70" arrivalLane="-416901218#1_1" arrivalPos="57.30" arrivalPosLat="0.00" arrivalSpeed="9.22" duration="83.20" routeLength="484.94" waitingTime="6.70" waitingCount="1" stopTime="0.00" timeLoss="30.57" rerouteNo="0" devices="tripinfo_flow_ew_east_straight.4 routing_flow_ew_east_straight.4" vType="car_conservative" speedFactor="1.03" vaporized=""/>
    <tripinfo id="flow_ns_south_straight.0" depart="0.00" departLane="-157782193#0_1" departPos="4.60" departPosLat="0.00" departSpeed="0.00" departDelay="0.00" arrival="103.00" arrivalLane="417034088#0_1" arrivalPos="26.74" arrivalPosLat="0.00" arrivalSpeed="15.15" duration="103.00" routeLength="250.67" waitingTime="78.20" waitingCount="1" stopTime="0.00" timeLoss="86.49" rerouteNo="0" devices="tripinfo_flow_ns_south_straight.0 routing_flow_ns_south_straight.0" vType="car_conservative" speedFactor="1.10" vaporized=""/>
    <tripinfo id="flow_ew_west_straight.9" depart="30.90" departLane="-157781953#2_1" departPos="5.00" departPosLat="0.00" departSpeed="0.00" departDelay="0.04" arrival="103.10" arrivalLane="417034218#1_1" arrivalPos="51.54" arrivalPosLat="0.00" arrivalSpeed="6.76" duration="72.20" routeLength="479.99" waitingTime="0.00" waitingCount="0" stopTime="0.00" timeLoss="2.53" rerouteNo="0" devices="tripinfo_flow_ew_west_straight.9 routing_flow_ew_west_straight.9" vType="suv_aggressive" speedFactor="0.77" vaporized=""/>
    <tripinfo id="flow_ns_south_straight.1" depart="40.00" departLane="-157782193#0_1" departPos="5.00" departPosLat="0.00" departSpeed="0.00" departDelay="0.00" arrival="103.50" arrivalLane="417034088#0_2" arrivalPos="26.74" arrivalPosLat="0.00" arrivalSpeed="15.28" duration="63.50" routeLength="249.82" waitingTime="33.70" waitingCount="1" stopTime="0.00" timeLoss="47.12" rerouteNo="0" devices="tripinfo_flow_ns_south_straight.1 routing_flow_ns_south_straight.1" vType="suv_conservative" speedFactor="1.10" vaporized=""/>
    <tripinfo id="flow_ns_north_left.0" depart="0.00" departLane="-417034088#0_2" departPos="4.60" departPosLat="0.00" departSpeed="0.00" departDelay="0.00" arrival="105.90" arrivalLane="417034218#1_1" arrivalPos="51.54" arrivalPosLat="0.00" arrivalSpeed="8.02" duration="105.90" routeLength="294.86" waitingTime="68.10" waitingCount="1" stopTime="0.00" timeLoss="75.03" rerouteNo="0" devices="tripinfo_flow_ns_north_left.0 routing_flow_ns_north_left.0" vType="car_conservative" speedFactor="0.90" vaporized=""/>
    <tripinfo id="flow_ns_north_straight.0" depart="0.00" departLane="-417034088#0_1" departPos="10.60" departPosLat="0.00" departSpeed="0.00" departDelay="0.00" arrival="106.60" arrivalLane="157782193#0_1" arrivalPos="48.72" arrivalPosLat="0.00" arrivalSpeed="13.89" duration="106.60" routeLength="243.67" waitingTime="73.70" waitingCount="1" stopTime="0.00" timeLoss="89.05" rerouteNo="0" devices="tripinfo_flow_ns_north_straight.0 routing_flow_ns_north_straight.0" vType="bus_school" speedFactor="1.00" vaporized=""/>
    <tripinfo id="flow_ns_south_left.0" depart="0.00" departLane="-157782193#2_1" departPos="5.00" departPosLat="0.00" departSpeed="0.00" departDelay="0.00" arrival="106.60" arrivalLane="-416901218#1_1" arrivalPos="57.30" arrivalPosLat="0.00" arrivalSpeed="8.41" duration="106.60" routeLength="370.43" waitingTime="62.30" waitingCount="1" stopTime="0.00" timeLoss="70.85" rerouteNo="0" devices="tripinfo_flow_ns_south_left.0 routing_flow_ns_south_left.0" vType="suv_normal" speedFactor="0.94" vaporized=""/>
    <tripinfo id="flow_ns_south_straight.2" depart="80.00" departLane="-157782193#0_1" departPos="4.60" departPosLat="0.00" departSpeed="0.00" departDelay="0.00" arrival="106.60" arrivalLane="417034088#0_2" arrivalPos="26.74" arrivalPosLat="0.00" arrivalSpeed="13.41" duration="26.60" routeLength="250.22" waitingTime="0.00" waitingCount="0" stopTime="0.00" timeLoss="8.00" rerouteNo="0" devices="tripinfo_flow_ns_south_straight.2 routing_flow_ns_south_straight.2" vType="car_aggressive" speedFactor="0.97" vaporized=""/>
    <tripinfo id="flow_ns_south_right.0" depart="2.60" departLane="-157782193#0_1" departPos="5.00" departPosLat="0.00" departSpeed="0.00" departDelay="2.60" arrival="112.50" arrivalLane="417034218#1_1" arrivalPos="51.54" arrivalPosLat="0.00" arrivalSpeed="9.07" duration="109.90" routeLength="267.77" waitingTime="70.50" waitingCount="1" stopTime="0.00" timeLoss="84.43" rerouteNo="0" devices="tripinfo_flow_ns_south_right.0 routing_flow_ns_south_right.0" vType="suv_normal" speedFactor="1.02" vaporized=""/>
    <tripinfo id="flow_ew_west_left.0" depart="0.00" departLane="-157781953#2_2" departPos="5.00" departPosLat="0.00" departSpeed="0.00" departDelay="0.00" arrival="115.30" arrivalLane="417034088#0_1" arrivalPos="26.74" arrivalPosLat="0.00" arrivalSpeed="15.11" duration="115.30" routeLength="440.41" waitingTime="62.50" waitingCount="2" stopTime="0.00" timeLoss="75.01" rerouteNo="0" devices="tripinfo_flow_ew_west_left.0 routing_flow_ew_west_left.0" vType="suv_normal" speedFactor="1.09" vaporized=""/>
    <tripinfo id="flow_ew_east_left.0" depart="0.00" departLane="-360446682#0_2" departPos="5.00" departPosLat="0.00" departSpeed="0.00" departDelay="0.00" arrival="122.20" arrivalLane="157782193#2_1" arrivalPos="52.61" arrivalPosLat="0.00" arrivalSpeed="11.64" duration="122.20" routeLength="501.41" waitingTime="58.40" waitingCount="1" stopTime="0.00" timeLoss="65.06" rerouteNo="0" devices="tripinfo_flow_ew_east_left.0 routing_flow_ew_east_left.0" vType="suv_conservative" speedFactor="0.84" vaporized=""/>
    <tripinfo id="flow_ew_east_right.1" depart="20.00" departLane="-360446682#0_1" departPos="4.60" departPosLat="0.00" departSpeed="0.00" departDelay="0.00" arrival="123.70" arrivalLane="417034088#0_1" arrivalPos="26.74" arrivalPosLat="0.00" arrivalSpeed="13.64" duration="103.70" routeLength="419.49" waitingTime="37.30" waitingCount="2" stopTime="0.00" timeLoss="61.13" rerouteNo="0" devices="tripinfo_flow_ew_east_right.1 routing_flow_ew_east_right.1" vType="car_aggressive" speedFactor="0.99" vaporized=""/>
    <tripinfo id="flow_ew_east_left.1" depart="24.00" departLane="-360446682#0_2" departPos="5.00" departPosLat="0.00" departSpeed="0.00" departDelay="0.00" arrival="124.40" arrivalLane="157782193#2_1" arrivalPos="52.61" arrivalPosLat="0.00" arrivalSpeed="13.01" duration="100.40" routeLength="501.41" waitingTime="13.70" waitingCount="1" stopTime="0.00" timeLoss="49.17" rerouteNo="0" devices="tripinfo_flow_ew_east_left.1 routing_flow_ew_east_left.1" vType="suv_conservative" speedFactor="0.94" vaporized=""/>
    <tripinfo id="flow_ew_east_right.2" depart="42.10" departLane="-360446682#0_1" departPos="12.10" departPosLat="0.00" departSpeed="0.00" departDelay="2.10" arrival="132.90" arrivalLane="417034088#0_1" arrivalPos="26.74" arrivalPosLat="0.00" arrivalSpeed="13.88" duration="90.80" routeLength="411.99" waitingTime="18.90" waitingCount="1" stopTime="0.00" timeLoss="49.32" rerouteNo="0" devices="tripinfo_flow_ew_east_right.2 routing_flow_ew_east_right.2" vType="bus_transit" speedFactor="1.00" vaporized=""/>
    <tripinfo id="flow_ew_west_right.2" depart="40.60" departLane="-157781953#2_1" departPos="5.00" departPosLat="0.00" departSpeed="0.00" departDelay="2.71" arrival="133.80" arrivalLane="157782193#2_1" arrivalPos="52.61" arrivalPosLat="0.00" arrivalSpeed="14.51" duration="93.20" routeLength="489.37" waitingTime="26.50" waitingCount="2" stopTime="0.00" timeLoss="47.77" rerouteNo="0" devices="tripinfo_flow_ew_west_right.2 routing_flow_ew_west_right.2" vType="suv_normal" speedFactor="1.05" vaporized=""/>
    <tripinfo id="flow_ew_east_straight.7" depart="24.10" departLane="-360446682#0_1" departPos="5.00" departPosLat="0.00" departSpeed="0.00" departDelay="0.10" arrival="134.50" arrivalLane="-416901218#1_1" arrivalPos="57.30" arrivalPosLat="0.00" arrivalSpeed="9.81" duration="110.40" routeLength="484.54" waitingTime="25.00" waitingCount="1" stopTime="0.00" timeLoss="61.22" rerouteNo="0" devices="tripinfo_flow_ew_east_straight.7 routing_flow_ew_east_straight.7" vType="suv_conservative" speedFactor="1.10" vaporized=""/>
    <tripinfo id="flow_ew_east_straight.9" depart="30.90" departLane="-360446682#0_1" departPos="4.60" departPosLat="0.00" departSpeed="0.00" departDelay="0.04" arrival="137.40" arrivalLane="-416901218#1_1" arrivalPos="57.30" arrivalPosLat="0.00" arrivalSpeed="9.28" duration="106.50" routeLength="484.94" waitingTime="23.40" waitingCount="1" stopTime="0.00" timeLoss="54.24" rerouteNo="0" devices="tripinfo_flow_ew_east_straight.9 routing_flow_ew_east_straight.9" vType="car_normal" speedFactor="1.04" vaporized=""/>
    <tripinfo id="flow_ew_east_straight.11" depart="37.80" departLane="-360446682#0_1" departPos="4.60" departPosLat="0.00" departSpeed="0.00" departDelay="0.08" arrival="138.90" arrivalLane="-416901218#1_1" arrivalPos="57.30" arrivalPosLat="-0.00" arrivalSpeed="9.35" duration="101.10" routeLength="484.94" waitingTime="22.70" waitingCount="1" stopTime="0.00" timeLoss="50.09" rerouteNo="0" devices="tripinfo_flow_ew_east_straight.11 routing_flow_ew_east_straight.11" vType="car_aggressive" speedFactor="1.06" vaporized=""/>
    <tripinfo id="flow_ew_west_straight.12" depart="41.20" departLane="-157781953#2_2" departPos="5.90" departPosLat="0.00" departSpeed="0.00" departDelay="0.05" arrival="138.90" arrivalLane="417034218#1_2" arrivalPos="51.54" arrivalPosLat="-1.45" arrivalSpeed="8.58" duration="97.70" routeLength="479.09" waitingTime="31.20" waitingCount="2" stopTime="0.00" timeLoss="41.91" rerouteNo="0" devices="tripinfo_flow_ew_west_straight.12 routing_flow_ew_west_straight.12" vType="pickup_normal" speedFactor="0.96" vaporized=""/>
    <tripinfo id="flow_ew_east_right.3" depart="60.00" departLane="-360446682#0_1" departPos="4.60" departPosLat="0.00" departSpeed="0.00" departDelay="0.00" arrival="139.00" arrivalLane="417034088#0_1" arrivalPos="26.74" arrivalPosLat="0.00" arrivalSpeed="12.59" duration="79.00" routeLength="419.49" waitingTime="13.10" waitingCount="1" stopTime="0.00" timeLoss="32.90" rerouteNo="0" devices="tripinfo_flow_ew_east_right.3 routing_flow_ew_east_right.3" vType="car_aggressive" speedFactor="0.92" vaporized=""/>
    <tripinfo id="flow_ew_west_straight.11" depart="37.80" departLane="-157781953#2_1" departPos="4.60" departPosLat="0.00" departSpeed="0.00" departDelay="0.08" arrival="139.50" arrivalLane="417034218#1_1" arrivalPos="51.54" arrivalPosLat="-0.27" arrivalSpeed="10.42" duration="101.70" routeLength="480.39" waitingTime="40.40" waitingCount="3" stopTime="0.00" timeLoss="55.68" rerouteNo="0" devices="tripinfo_flow_ew_west_straight.11 routing_flow_ew_west_straight.11" vType="car_aggressive" speedFactor="1.17" vaporized=""/>
    <tripinfo id="flow_ew_west_straight.15" depart="51.50" departLane="-157781953#2_2" departPos="4.60" departPosLat="0.00" departSpeed="0.00" departDelay="0.07" arrival="140.80" arrivalLane="417034218#1_2" arrivalPos="51.54" arrivalPosLat="0.00" arrivalSpeed="8.31" duration="89.30" routeLength="480.39" waitingTime="15.90" waitingCount="1" stopTime="0.00" timeLoss="32.55" rerouteNo="0" devices="tripinfo_flow_ew_west_straight.15 routing_flow_ew_west_straight.15" vType="car_aggressive" speedFactor="0.95" vaporized=""/>
    <tripinfo id="flow_ew_west_right.3" depart="57.70" departLane="-157781953#2_1" departPos="4.60" departPosLat="0.00" departSpeed="0.00" departDelay="0.86" arrival="141.40" arrivalLane="157782193#2_1" arrivalPos="52.61" arrivalPosLat="0.00" arrivalSpeed="14.63" duration="83.70" routeLength="489.77" waitingTime="11.50" waitingCount="1" stopTime="0.00" timeLoss="38.63" rerouteNo="0" devices="tripinfo_flow_ew_west_right.3 routing_flow_ew_west_right.3" vType="car_normal" speedFactor="1.06" vaporized=""/>
    <tripinfo id="flow_ew_west_straight.13" depart="44.60" departLane="-157781953#2_1" departPos="4.60" departPosLat="0.00" departSpeed="0.00" departDelay="0.02" arrival="142.60" arrivalLane="417034218#1_1" arrivalPos="51.54" arrivalPosLat="-0.00" arrivalSpeed="8.88" duration="98.00" routeLength="480.39" waitingTime="20.10" waitingCount="1" stopTime="0.00" timeLoss="44.08" rerouteNo="0" devices="tripinfo_flow_ew_west_straight.13 routing_flow_ew_west_straight.13" vType="car_conservative" speedFactor="1.00" vaporized=""/>
    <tripinfo id="flow_ew_west_straight.17" depart="58.30" departLane="-157781953#2_2" departPos="4.60" departPosLat="0.00" departSpeed="0.00" departDelay="0.01" arrival="142.70" arrivalLane="417034218#1_2" arrivalPos="51.54" arrivalPosLat="0.00" arrivalSpeed="9.22" duration="84.40" routeLength="480.39" waitingTime="9.90" waitingCount="1" stopTime="0.00" timeLoss="32.30" rerouteNo="0" devices="tripinfo_flow_ew_west_straight.17 routing_flow_ew_west_straight.17" vType="car_normal" speedFactor="1.03" vaporized=""/>
    <tripinfo id="flow_ew_west_straight.19" depart="65.20" departLane="-157781953#2_2" departPos="4.60" departPosLat="0.00" departSpeed="0.00" departDelay="0.05" arrival="144.10" arrivalLane="417034218#1_2" arrivalPos="51.54" arrivalPosLat="0.00" arrivalSpeed="9.59" duration="78.90" routeLength="480.39" waitingTime="5.60" waitingCount="1" stopTime="0.00" timeLoss="29.20" rerouteNo="0" devices="tripinfo_flow_ew_west_straight.19 routing_flow_ew_west_straight.19" vType="car_aggressive" speedFactor="1.08" vaporized=""/>
    <tripinfo id="flow_ew_west_straight.14" depart="48.10" departLane="-157781953#2_1" departPos="4.60" departPosLat="0.00" departSpeed="0.00" departDelay="0.09" arrival="144.80" arrivalLane="417034218#1_1" arrivalPos="51.54" arrivalPosLat="-0.00" arrivalSpeed="8.52" duration="96.70" routeLength="480.39" waitingTime="18.40" waitingCount="1" stopTime="0.00" timeLoss="40.72" rerouteNo="0" devices="tripinfo_flow_ew_west_straight.14 routing_flow_ew_west_straight.14" vType="car_normal" speedFactor="0.96" vaporized=""/>
    <tripinfo id="flow_ew_west_straight.21" depart="72.10" departLane="-157781953#2_2" departPos="4.60" departPosLat="0.00" departSpeed="0.00" departDelay="0.09" arrival="146.00" arrivalLane="417034218#1_2" arrivalPos="51.54" arrivalPosLat="0.00" arrivalSpeed="9.35" duration="73.90" routeLength="480.39" waitingTime="0.00" waitingCount="0" stopTime="0.00" timeLoss="22.82" rerouteNo="0" devices="tripinfo_flow_ew_west_straight.21 routing_flow_ew_west_straight.21" vType="car_normal" speedFactor="1.05" vaporized=""/>
    <tripinfo id="flow_ew_east_straight.14" depart="48.80" departLane="-360446682#0_1" departPos="5.90" departPosLat="0.00" departSpeed="0.00" departDelay="0.79" arrival="146.10" arrivalLane="-416901218#1_1" arrivalPos="57.30" arrivalPosLat="-0.00" arrivalSpeed="8.81" duration="97.30" routeLength="483.64" waitingTime="15.20" waitingCount="2" stopTime="0.00" timeLoss="42.41" rerouteNo="0" devices="tripinfo_flow_ew_east_straight.14 routing_flow_ew_east_straight.14" vType="pickup_conservative" speedFactor="0.99" vaporized=""/>
    <tripinfo id="flow_ew_west_straight.16" depart="54.90" departLane="-157781953#2_1" departPos="5.90" departPosLat="0.00" departSpeed="0.00" departDelay="0.04" arrival="147.70" arrivalLane="417034218#1_1" arrivalPos="51.54" arrivalPosLat="0.00" arrivalSpeed="8.27" duration="92.80" routeLength="479.09" waitingTime="12.90" waitingCount="1" stopTime="0.00" timeLoss="34.97" rerouteNo="0" devices="tripinfo_flow_ew_west_straight.16 routing_flow_ew_west_straight.16" vType="pickup_conservative" speedFactor="0.93" vaporized=""/>
    <tripinfo id="flow_ew_east_straight.16" depart="54.90" departLane="-360446682#0_1" departPos="4.60" departPosLat="0.00" departSpeed="0.00" departDelay="0.04" arrival="148.20" arrivalLane="-416901218#1_1" arrivalPos="57.30" arrivalPosLat="-0.00" arrivalSpeed="9.13" duration="93.30" routeLength="484.94" waitingTime="13.50" waitingCount="1" stopTime="0.00" timeLoss="40.15" rerouteNo="0" devices="tripinfo_flow_ew_east_straight.16 routing_flow_ew_east_straight.16" vType="car_normal" speedFactor="1.02" vaporized=""/>
    <tripinfo id="flow_ew_west_right.4" depart="78.10" departLane="-157781953#2_1" departPos="4.60" departPosLat="0.00" departSpeed="0.00" departDelay="2.31" arrival="148.20" arrivalLane="157782193#2_1" arrivalPos="52.61" arrivalPosLat="0.00" arrivalSpeed="12.52" duration="70.10" routeLength="489.77" waitingTime="0.00" waitingCount="0" stopTime="0.00" timeLoss="17.57" rerouteNo="0" devices="tripinfo_flow_ew_west_right.4 routing_flow_ew_west_right.4" vType="car_conservative" speedFactor="0.91" vaporized=""/>
    <tripinfo id="flow_ew_west_straight.20" depart="68.60" departLane="-157781953#2_1" departPos="5.00" departPosLat="0.00" departSpeed="0.00" departDelay="0.02" arrival="148.80" arrivalLane="417034218#1_2" arrivalPos="51.54" arrivalPosLat="0.79" arrivalSpeed="8.69" duration="80.20" routeLength="479.99" waitingTime="1.20" waitingCount="1" stopTime="0.00" timeLoss="25.39" rerouteNo="0" devices="tripinfo_flow_ew_west_straight.20 routing_flow_ew_west_straight.20" vType="suv_conservative" speedFactor="0.98" vaporized=""/>
    <tripinfo id="flow_ew_west_straight.23" depart="78.90" departLane="-157781953#2_2" departPos="5.00" departPosLat="0.00" departSpeed="0.00" departDelay="0.03" arrival="150.80" arrivalLane="417034218#1_2" arrivalPos="51.54" arrivalPosLat="0.75" arrivalSpeed="9.76" duration="71.90" routeLength="479.99" waitingTime="0.70" waitingCount="1" stopTime="0.00" timeLoss="22.95" rerouteNo="0" devices="tripinfo_flow_ew_west_straight.23 routing_flow_ew_west_straight.23" vType="suv_normal" speedFactor="1.10" vaporized=""/>
    <tripinfo id="flow_ew_east_straight.19" depart="65.20" departLane="-360446682#0_1" departPos="4.60" departPosLat="0.00" departSpeed="0.00" departDelay="0.05" arrival="151.30" arrivalLane="-416901218#1_1" arrivalPos="57.30" arrivalPosLat="0.00" arrivalSpeed="9.08" duration="86.10" routeLength="484.94" waitingTime="10.40" waitingCount="1" stopTime="0.00" timeLoss="32.69" rerouteNo="0" devices="tripinfo_flow_ew_east_straight.19 routing_flow_ew_east_straight.19" vType="car_conservative" speedFactor="1.02" vaporized=""/>
    <tripinfo id="flow_ew_west_straight.18" depart="61.80" departLane="-157781953#2_1" departPos="5.00" departPosLat="0.00" departSpeed="0.00" departDelay="0.08" arrival="151.80" arrivalLane="417034218#1_2" arrivalPos="51.54" arrivalPosLat="-1.81" arrivalSpeed="7.92" duration="90.00" routeLength="479.99" waitingTime="9.40" waitingCount="1" stopTime="0.00" timeLoss="30.10" rerouteNo="0" devices="tripinfo_flow_ew_west_straight.18 routing_flow_ew_west_straight.18" vType="suv_normal" speedFactor="0.90" vaporized=""/>
    <tripinfo id="flow_ew_west_right.5" depart="95.50" departLane="-157781953#2_1" departPos="4.60" departPosLat="0.00" departSpeed="0.00" departDelay="0.77" arrival="152.40" arrivalLane="157782193#2_1" arrivalPos="52.61" arrivalPosLat="0.00" arrivalSpeed="15.18" duration="56.90" routeLength="489.77" waitingTime="0.00" waitingCount="0" stopTime="0.00" timeLoss="13.45" rerouteNo="0" devices="tripinfo_flow_ew_west_right.5 routing_flow_ew_west_right.5" vType="car_normal" speedFactor="1.10" vaporized=""/>