<?xml version="1.0" encoding="UTF-8"?>

<!-- generated on 2026-02-13 13:45:11 by Eclipse SUMO GUI Version 1.23.1
<sumoConfiguration xmlns:xsi="http://www.w3.org/2001/XMLSchema-instance" xsi:noNamespaceSchemaLocation="http://sumo.dlr.de/xsd/sumoConfiguration.xsd">

    <input>
        <net-file value="/home/yilinwang/San Jose GTC Demo/san_jose_downtown_gtc/osm_modified.net.xml"/>
        <route-files value="/home/yilinwang/San Jose GTC Demo/san_jose_downtown_gtc/directional_traffic.rou.xml"/>
        <additional-files value="/home/yilinwang/San Jose GTC Demo/san_jose_downtown_gtc/osm.poly.xml.gz,/home/yilinwang/San Jose GTC Demo/san_jose_downtown_gtc/ osm_new.tls.xml"/>
    </input>

    <output>
        <tripinfo-output value="/home/yilinwang/San Jose GTC Demo/traffic_data_analysis/delay_result/tripinfo_benchmark.xml"/>
        <statistic-output value="/home/yilinwang/San Jose GTC Demo/traffic_data_analysis/delay_result/statistic_benchmark.xml"/>
    </output>

    <time>
        <end value="1800"/>
        <step-length value="0.1"/>
    </time>

    <processing>
        <lateral-resolution value="0.2"/>
        <ignore-route-errors value="true"/>
        <time-to-teleport value="-1"/>
        <tls.actuated.jam-threshold value="30"/>
    </processing>

    <routing>
        <device.rerouting.probability value="1.0"/>
        <device.rerouting.period value="30"/>
        <device.rerouting.pre-period value="0"/>
        <device.rerouting.adaptation-steps value="18"/>
        <device.rerouting.adaptation-interval value="10"/>
        <device.rerouting.with-taz value="false"/>
    </routing>

    <report>
        <verbose value="true"/>
        <duration-log.statistics value="true"/>
        <no-step-log value="true"/>
    </report>

    <traci_server>
        <remote-port value="59265"/>
    </traci_server>

    <gui_only>
        <gui-settings-file value="/home/yilinwang/San Jose GTC Demo/san_jose_downtown_gtc/osm.view.xml"/>
        <quit-on-end value="true"/>
        <start value="true"/>
        <delay value="40"/>
        <window-size value="1920,1440"/>
    </gui_only>

</sumoConfiguration>
-->

<tripinfos xmlns:xsi="http://www.w3.org/2001/XMLSchema-instance" xsi:noNamespaceSchemaLocation="http://sumo.dlr.de/xsd/tripinfo_file.xsd">
    <tripinfo id="flow_ew_east_right.0" depart="2.70" departLane="-360446682#0_1" departPos="4.60" departPosLat="0.00" departSpeed="0.00" departDelay="2.70" arrival="55.10" arrivalLane="417034088#0_1" arrivalPos="26.74" arrivalPosLat="0.00" arrivalSpeed="14.00" duration="52.40" routeLength="419.49" waitingTime="0.00" waitingCount="0" stopTime="0.00" timeLoss="10.60" rerouteNo="0" devices="tripinfo_flow_ew_east_right.0 routing_flow_ew_east_right.0" vType="car_conservative" speedFactor="1.01" vaporized=""/>
    <tripinfo id="flow_ew_east_straight.1" depart="3.70" departLane="-360446682#0_2" departPos="10.60" departPosLat="0.00" departSpeed="0.00" departDelay="0.27" arrival="65.60" arrivalLane="-416901218#1_2" arrivalPos="57.30" arrivalPosLat="0.00" arrivalSpeed="8.93" duration="61.90" routeLength="478.94" waitingTime="0.00" waitingCount="0" stopTime="0.00" timeLoss="8.26" rerouteNo="0" devices="tripinfo_flow_ew_east_straight.1 routing_flow_ew_east_straight.1" vType="bus_school" speedFactor="1.00" vaporized=""/>
    <tripinfo id="flow_ew_east_straight.0" depart="0.00" departLane="-360446682#0_1" departPos="4.60" departPosLat="0.00" departSpeed="0.00" departDelay="0.00" arrival="66.60" arrivalLane="-416901218#1_1" arrivalPos="57.30" arrivalPosLat="0.00" arrivalSpeed="7.87" duration="66.60" routeLength="484.94" waitingTime="0.20" waitingCount="1" stopTime="0.00" timeLoss="5.36" rerouteNo="0" devices="tripinfo_flow_ew_east_straight.0 routing_flow_ew_east_straight.0" vType="car_normal" speedFactor="0.89" vaporized=""/>
    <tripinfo id="flow_ns_north_left.0" depart="0.00" departLane="-417034088#0_2" departPos="4.60" departPosLat="0.00" departSpeed="0.00" departDelay="0.00" arrival="75.10" arrivalLane="417034218#1_1" arrivalPos="51.54" arrivalPosLat="0.00" arrivalSpeed="7.98" duration="75.10" routeLength="294.86" waitingTime="37.30" waitingCount="1" stopTime="0.00" timeLoss="44.15" rerouteNo="0" devices="tripinfo_flow_ns_north_left.0 routing_flow_ns_north_left.0" vType="car_conservative" speedFactor="0.90" vaporized=""/>
    <tripinfo id="flow_ns_south_left.0" depart="0.00" departLane="-157782193#2_1" departPos="5.00" departPosLat="0.00" departSpeed="0.00" departDelay="0.00" arrival="75.80" arrivalLane="-416901218#1_1" arrivalPos="57.30" arrivalPosLat="0.00" arrivalSpeed="8.31" duration="75.80" routeLength="370.43" waitingTime="31.50" waitingCount="1" stopTime="0.00" timeLoss="40.06" rerouteNo="0" devices="tripinfo_flow_ns_south_left.0 routing_flow_ns_south_left.0" vType="suv_normal" speedFactor="0.94" vaporized=""/>
    <tripinfo id="flow_ns_south_straight.0" depart="0.00" departLane="-157782193#0_1" departPos="4.60" departPosLat="0.00" departSpeed="0.00" departDelay="0.00" arrival="80.20" arrivalLane="417034088#0_1" arrivalPos="26.74" arrivalPosLat="0.00" arrivalSpeed="15.14" duration="80.20" routeLength="250.67" waitingTime="55.40" waitingCount="1" stopTime="0.00" timeLoss="63.68" rerouteNo="0" devices="tripinfo_flow_ns_south_straight.0 routing_flow_ns_south_straight.0" vType="car_conservative" speedFactor="1.10" vaporized=""/>
    <tripinfo id="flow_ns_south_straight.1" depart="40.00" departLane="-157782193#0_1" departPos="5.00" departPosLat="0.00" departSpeed="0.00" departDelay="0.00" arrival="80.70" arrivalLane="417034088#0_2" arrivalPos="26.74" arrivalPosLat="0.00" arrivalSpeed="15.24" duration="40.70" routeLength="249.82" waitingTime="11.00" waitingCount="1" stopTime="0.00" timeLoss="24.28" rerouteNo="0" devices="tripinfo_flow_ns_south_straight.1 routing_flow_ns_south_straight.1" vType="suv_conservative" speedFactor="1.10" vaporized=""/>
    <tripinfo id="flow_ns_north_straight.0" depart="0.00" departLane="-417034088#0_1" departPos="10.60" departPosLat="0.00" departSpeed="0.00" departDelay="0.00" arrival="82.80" arrivalLane="157782193#0_1" arrivalPos="48.72" arrivalPosLat="0.00" arrivalSpeed="13.89" duration="82.80" routeLength="243.67" waitingTime="49.90" waitingCount="1" stopTime="0.00" timeLoss="65.24" rerouteNo="0" devices="tripinfo_flow_ns_north_straight.0 routing_flow_ns_north_straight.0" vType="bus_school" speedFactor="1.00" vaporized=""/>
    <tripinfo id="flow_ns_north_straight.1" depart="36.00" departLane="-417034088#0_1" departPos="16.60" departPosLat="0.00" departSpeed="0.00" departDelay="0.00" arrival="88.00" arrivalLane="157782193#0_1" arrivalPos="48.72" arrivalPosLat="0.00" arrivalSpeed="13.03" duration="52.00" routeLength="237.67" waitingTime="9.50" waitingCount="1" stopTime="0.00" timeLoss="33.72" rerouteNo="0" devices="tripinfo_flow_ns_north_straight.1 routing_flow_ns_north_straight.1" vType="semi_truck" speedFactor="0.94" vaporized=""/>
    <tripinfo id="flow_ns_south_right.0" depart="2.60" departLane="-157782193#0_1" departPos="5.00" departPosLat="0.00" departSpeed="0.00" departDelay="2.60" arrival="89.90" arrivalLane="417034218#1_1" arrivalPos="51.54" arrivalPosLat="0.00" arrivalSpeed="9.01" duration="87.30" routeLength="267.77" waitingTime="47.70" waitingCount="1" stopTime="0.00" timeLoss="61.76" rerouteNo="0" devices="tripinfo_flow_ns_south_right.0 routing_flow_ns_south_right.0" vType="suv_normal" speedFactor="1.02" vaporized=""/>
    <tripinfo id="flow_ns_north_right.0" depart="3.60" departLane="-417034088#0_1" departPos="4.60" departPosLat="0.00" departSpeed="0.00" departDelay="3.60" arrival="93.40" arrivalLane="-416901218#1_1" arrivalPos="57.30" arrivalPosLat="0.00" arrivalSpeed="8.45" duration="89.80" routeLength="285.15" waitingTime="45.40" waitingCount="1" stopTime="0.00" timeLoss="60.83" rerouteNo="0" devices="tripinfo_flow_ns_north_right.0 routing_flow_ns_north_right.0" vType="car_normal" speedFactor="0.95" vaporized=""/>
    <tripinfo id="flow_ns_north_straight.2" depart="72.00" departLane="-417034088#0_1" departPos="16.60" departPosLat="0.00" departSpeed="0.00" departDelay="0.00" arrival="97.10" arrivalLane="157782193#0_1" arrivalPos="48.72" arrivalPosLat="0.00" arrivalSpeed="13.48" duration="25.10" routeLength="237.67" waitingTime="0.00" waitingCount="0" stopTime="0.00" timeLoss="7.40" rerouteNo="0" devices="tripinfo_flow_ns_north_straight.2 routing_flow_ns_north_straight.2" vType="semi_truck" speedFactor="0.97" vaporized=""/>
    <tripinfo id="flow_ns_south_straight.2" depart="80.00" departLane="-157782193#0_1" departPos="4.60" departPosLat="0.00" departSpeed="0.00" departDelay="0.00" arrival="102.60" arrivalLane="417034088#0_1" arrivalPos="26.74" arrivalPosLat="0.00" arrivalSpeed="13.43" duration="22.60" routeLength="250.67" waitingTime="0.00" waitingCount="0" stopTime="0.00" timeLoss="3.95" rerouteNo="0" devices="tripinfo_flow_ns_south_straight.2 routing_flow_ns_south_straight.2" vType="car_aggressive" speedFactor="0.97" vaporized=""/>
    <tripinfo id="flow_ew_west_left.0" depart="0.00" departLane="-157781953#2_2" departPos="5.00" departPosLat="0.00" departSpeed="0.00" departDelay="0.00" arrival="115.40" arrivalLane="417034088#0_1" arrivalPos="26.74" arrivalPosLat="0.00" arrivalSpeed="15.13" duration="115.40" routeLength="440.41" waitingTime="62.50" waitingCount="2" stopTime="0.00" timeLoss="75.13" rerouteNo="0" devices="tripinfo_flow_ew_west_left.0 routing_flow_ew_west_left.0" vType="suv_normal" speedFactor="1.09" vaporized=""/>
    <tripinfo id="flow_ew_west_left.1" depart="45.00" departLane="-157781953#2_2" departPos="4.60" departPosLat="0.00" departSpeed="0.00" departDelay="0.00" arrival="122.00" arrivalLane="417034088#0_1" arrivalPos="26.74" arrivalPosLat="0.00" arrivalSpeed="15.44" duration="77.00" routeLength="440.81" waitingTime="22.30" waitingCount="1" stopTime="0.00" timeLoss="37.76" rerouteNo="0" devices="tripinfo_flow_ew_west_left.1 routing_flow_ew_west_left.1" vType="car_aggressive" speedFactor="1.12" vaporized=""/>
    <tripinfo id="flow_ew_east_left.0" depart="0.00" departLane="-360446682#0_2" departPos="5.00" departPosLat="0.00" departSpeed="0.00" departDelay="0.00" arrival="122.20" arrivalLane="157782193#2_1" arrivalPos="52.61" arrivalPosLat="0.00" arrivalSpeed="11.64" duration="122.20" routeLength="501.41" waitingTime="58.40" waitingCount="1" stopTime="0.00" timeLoss="65.05" rerouteNo="0" devices="tripinfo_flow_ew_east_left.0 routing_flow_ew_east_left.0" vType="suv_conservative" speedFactor="0.84" vaporized=""/>
    <tripinfo id="flow_ew_east_left.1" depart="24.00" departLane="-360446682#0_2" departPos="5.00" departPosLat="0.00" departSpeed="0.00" departDelay="0.00" arrival="124.40" arrivalLane="157782193#2_1" arrivalPos="52.61" arrivalPosLat="0.00" arrivalSpeed="13.01" duration="100.40" routeLength="501.41" waitingTime="16.90" waitingCount="1" stopTime="0.00" timeLoss="49.17" rerouteNo="0" devices="tripinfo_flow_ew_east_left.1 routing_flow_ew_east_left.1" vType="suv_conservative" speedFactor="0.94" vaporized=""/>
    <tripinfo id="flow_ew_east_right.1" depart="20.00" departLane="-360446682#0_1" departPos="4.60" departPosLat="0.00" departSpeed="0.00" departDelay="0.00" arrival="135.30" arrivalLane="417034088#0_1" arrivalPos="26.74" arrivalPosLat="0.00" arrivalSpeed="13.67" duration="115.30" routeLength="419.49" waitingTime="37.20" waitingCount="2" stopTime="0.00" timeLoss="72.78" rerouteNo="0" devices="tripinfo_flow_ew_east_right.1 routing_flow_ew_east_right.1" vType="car_aggressive" speedFactor="0.99" vaporized=""/>
    <tripinfo id="flow_ew_west_right.0" depart="2.60" departLane="-157781953#2_1" departPos="4.60" departPosLat="0.00" departSpeed="0.00" departDelay="2.60" arrival="136.70" arrivalLane="157782193#2_1" arrivalPos="52.61" arrivalPosLat="0.00" arrivalSpeed="15.50" duration="134.10" routeLength="489.77" waitingTime="67.10" waitingCount="2" stopTime="0.00" timeLoss="91.73" rerouteNo="0" devices="tripinfo_flow_ew_west_right.0 routing_flow_ew_west_right.0" vType="car_normal" speedFactor="1.12" vaporized=""/>
    <tripinfo id="flow_ew_east_straight.2" depart="6.90" departLane="-360446682#0_1" departPos="4.60" departPosLat="0.00" departSpeed="0.00" departDelay="0.04" arrival="137.80" arrivalLane="-416901218#1_1" arrivalPos="57.30" arrivalPosLat="0.00" arrivalSpeed="9.20" duration="130.90" routeLength="484.94" waitingTime="67.20" waitingCount="1" stopTime="0.00" timeLoss="78.69" rerouteNo="0" devices="tripinfo_flow_ew_east_straight.2 routing_flow_ew_east_straight.2" vType="car_normal" speedFactor="1.04" vaporized=""/>
    <tripinfo id="flow_ew_west_straight.10" depart="34.30" departLane="-157781953#2_2" departPos="2.30" departPosLat="0.00" departSpeed="0.00" departDelay="0.01" arrival="140.60" arrivalLane="417034218#1_1" arrivalPos="51.54" arrivalPosLat="1.77" arrivalSpeed="9.07" duration="106.30" routeLength="482.69" waitingTime="44.20" waitingCount="1" stopTime="0.00" timeLoss="53.32" rerouteNo="0" devices="tripinfo_flow_ew_west_straight.10 routing_flow_ew_west_straight.10" vType="motorcycle_normal" speedFactor="1.02" vaporized=""/>
    <tripinfo id="flow_ew_east_straight.5" depart="17.20" departLane="-360446682#0_2" departPos="4.60" departPosLat="0.00" departSpeed="0.00" departDelay="0.06" arrival="140.90" arrivalLane="-416901218#1_2" arrivalPos="57.30" arrivalPosLat="0.00" arrivalSpeed="7.90" duration="123.70" routeLength="484.94" waitingTime="52.60" waitingCount="3" stopTime="0.00" timeLoss="63.03" rerouteNo="0" devices="tripinfo_flow_ew_east_straight.5 routing_flow_ew_east_straight.5" vType="car_normal" speedFactor="0.89" vaporized=""/>
    <tripinfo id="flow_ew_east_right.2" depart="42.10" departLane="-360446682#0_1" departPos="12.10" departPosLat="0.00" departSpeed="0.00" departDelay="2.10" arrival="141.40" arrivalLane="417034088#0_1" arrivalPos="26.74" arrivalPosLat="-0.00" arrivalSpeed="13.88" duration="99.30" routeLength="411.99" waitingTime="23.00" waitingCount="2" stopTime="0.00" timeLoss="57.80" rerouteNo="0" devices="tripinfo_flow_ew_east_right.2 routing_flow_ew_east_right.2" vType="bus_transit" speedFactor="1.00" vaporized=""/>
    <tripinfo id="flow_ew_east_straight.3" depart="10.70" departLane="-360446682#0_1" departPos="12.10" departPosLat="0.00" departSpeed="0.00" departDelay="0.41" arrival="141.70" arrivalLane="-416901218#1_1" arrivalPos="57.30" arrivalPosLat="-0.31" arrivalSpeed="8.92" duration="131.00" routeLength="477.44" waitingTime="50.40" waitingCount="3" stopTime="0.00" timeLoss="77.53" rerouteNo="0" devices="tripinfo_flow_ew_east_straight.3 routing_flow_ew_east_straight.3" vType="bus_transit" speedFactor="1.00" vaporized=""/>
    <tripinfo id="flow_ew_west_straight.1" depart="3.50" departLane="-157781953#2_2" departPos="4.60" departPosLat="0.00" departSpeed="0.00" departDelay="0.07" arrival="141.80" arrivalLane="417034218#1_2" arrivalPos="51.54" arrivalPosLat="0.00" arrivalSpeed="8.71" duration="138.30" routeLength="480.39" waitingTime="70.10" waitingCount="2" stopTime="0.00" timeLoss="83.14" rerouteNo="0" devices="tripinfo_flow_ew_west_straight.1 routing_flow_ew_west_straight.1" vType="car_normal" speedFactor="0.97" vaporized=""/>
    <tripinfo id="flow_ew_east_straight.25" depart="85.80" departLane="-360446682#0_1" departPos="2.30" departPosLat="0.00" departSpeed="0.00" departDelay="0.08" arrival="142.00" arrivalLane="-416901218#1_2" arrivalPos="57.30" arrivalPosLat="-1.66" arrivalSpeed="9.60" duration="56.20" routeLength="487.24" waitingTime="0.00" waitingCount="0" stopTime="0.00" timeLoss="5.47" rerouteNo="0" devices="tripinfo_flow_ew_east_straight.25 routing_flow_ew_east_straight.25" vType="motorcycle_normal" speedFactor="1.08" vaporized=""/>
    <tripinfo id="flow_ew_west_straight.0" depart="0.00" departLane="-157781953#2_1" departPos="5.00" departPosLat="0.00" departSpeed="0.00" departDelay="0.00" arrival="143.00" arrivalLane="417034218#1_1" arrivalPos="51.54" arrivalPosLat="0.00" arrivalSpeed="8.19" duration="143.00" routeLength="479.99" waitingTime="76.60" waitingCount="2" stopTime="0.00" timeLoss="84.81" rerouteNo="0" devices="tripinfo_flow_ew_west_straight.0 routing_flow_ew_west_straight.0" vType="suv_conservative" speedFactor="0.92" vaporized=""/>
    <tripinfo id="flow_ew_west_right.1" depart="19.00" departLane="-157781953#2_1" departPos="5.00" departPosLat="0.00" departSpeed="0.00" departDelay="0.05" arrival="143.00" arrivalLane="157782193#2_1" arrivalPos="52.61" arrivalPosLat="0.00" arrivalSpeed="15.51" duration="124.00" routeLength="489.37" waitingTime="55.30" waitingCount="1" stopTime="0.00" timeLoss="81.60" rerouteNo="0" devices="tripinfo_flow_ew_west_right.1 routing_flow_ew_west_right.1" vType="suv_conservative" speedFactor="1.12" vaporized=""/>
    <tripinfo id="flow_ew_east_straight.6" depart="20.60" departLane="-360446682#0_2" departPos="4.60" departPosLat="0.00" departSpeed="0.00" departDelay="0.03" arrival="143.50" arrivalLane="-416901218#1_2" arrivalPos="57.30" arrivalPosLat="0.00" arrivalSpeed="8.64" duration="122.90" routeLength="484.94" waitingTime="34.80" waitingCount="1" stopTime="0.00" timeLoss="66.88" rerouteNo="0" devices="tripinfo_flow_ew_east_straight.6 routing_flow_ew_east_straight.6" vType="car_conservative" speedFactor="0.97" vaporized=""/>
    <tripinfo id="flow_ew_east_straight.4" depart="14.50" departLane="-360446682#0_1" departPos="4.60" departPosLat="0.00" departSpeed="0.00" departDelay="0.78" arrival="145.10" arrivalLane="-416901218#1_1" arrivalPos="57.30" arrivalPosLat="0.00" arrivalSpeed="9.19" duration="130.60" routeLength="484.94" waitingTime="39.10" waitingCount="2" stopTime="0.00" timeLoss="77.98" rerouteNo="0" devices="tripinfo_flow_ew_east_straight.4 routing_flow_ew_east_straight.4" vType="car_conservative" speedFactor="1.03" vaporized=""/>
    <tripinfo id="flow_ew_east_straight.8" depart="27.50" departLane="-360446682#0_2" departPos="4.60" departPosLat="0.00" departSpeed="0.00" departDelay="0.07" arrival="145.40" arrivalLane="-416901218#1_2" arrivalPos="57.30" arrivalPosLat="0.00" arrivalSpeed="9.16" duration="117.90" routeLength="484.94" waitingTime="31.50" waitingCount="1" stopTime="0.00" timeLoss="65.23" rerouteNo="0" devices="tripinfo_flow_ew_east_straight.8 routing_flow_ew_east_straight.8" vType="car_normal" speedFactor="1.03" vaporized=""/>
    <tripinfo id="flow_ew_west_straight.7" depart="24.10" departLane="-157781953#2_1" departPos="2.30" departPosLat="0.00" departSpeed="0.00" departDelay="0.10" arrival="146.20" arrivalLane="417034218#1_2" arrivalPos="51.54" arrivalPosLat="-1.49" arrivalSpeed="7.31" duration="122.10" routeLength="482.69" waitingTime="43.00" waitingCount="2" stopTime="0.00" timeLoss="57.36" rerouteNo="0" devices="tripinfo_flow_ew_west_straight.7 routing_flow_ew_west_straight.7" vType="motorcycle_normal" speedFactor="0.83" vaporized=""/>
    <tripinfo id="flow_ew_west_straight.3" depart="10.30" departLane="-157781953#2_2" departPos="4.60" departPosLat="0.00" departSpeed="0.00" departDelay="0.01" arrival="146.30" arrivalLane="417034218#1_2" arrivalPos="51.54" arrivalPosLat="0.00" arrivalSpeed="7.76" duration="136.00" routeLength="480.39" waitingTime="59.30" waitingCount="1" stopTime="0.00" timeLoss="74.39" rerouteNo="0" devices="tripinfo_flow_ew_west_straight.3 routing_flow_ew_west_straight.3" vType="car_conservative" speedFactor="0.87" vaporized=""/>
    <tripinfo id="flow_ew_west_right.2" depart="40.60" departLane="-157781953#2_1" departPos="5.00" departPosLat="0.00" departSpeed="0.00" departDelay="2.71" arrival="147.10" arrivalLane="157782193#2_1" arrivalPos="52.61" arrivalPosLat="0.00" arrivalSpeed="14.47" duration="106.50" routeLength="489.37" waitingTime="42.90" waitingCount="2" stopTime="0.00" timeLoss="61.07" rerouteNo="0" devices="tripinfo_flow_ew_west_right.2 routing_flow_ew_west_right.2" vType="suv_normal" speedFactor="1.05" vaporized=""/>
    <tripinfo id="flow_ew_east_straight.7" depart="24.10" departLane="-360446682#0_1" departPos="5.00" departPosLat="0.00" departSpeed="0.00" departDelay="0.10" arrival="147.50" arrivalLane="-416901218#1_1" arrivalPos="57.30" arrivalPosLat="0.00" arrivalSpeed="9.84" duration="123.40" routeLength="484.54" waitingTime="29.80" waitingCount="1" stopTime="0.00" timeLoss="74.21" rerouteNo="0" devices="tripinfo_flow_ew_east_straight.7 routing_flow_ew_east_straight.7" vType="suv_conservative" speedFactor="1.10" vaporized=""/>
    <tripinfo id="flow_ew_west_straight.5" depart="17.20" departLane="-157781953#2_2" departPos="4.60" departPosLat="0.00" departSpeed="0.00" departDelay="0.06" arrival="147.70" arrivalLane="417034218#1_2" arrivalPos="51.54" arrivalPosLat="0.00" arrivalSpeed="10.06" duration="130.50" routeLength="480.39" waitingTime="58.60" waitingCount="1" stopTime="0.00" timeLoss="83.96" rerouteNo="0" devices="tripinfo_flow_ew_west_straight.5 routing_flow_ew_west_straight.5" vType="car_aggressive" speedFactor="1.15" vaporized=""/>
    <tripinfo id="flow_ew_east_straight.10" depart="34.30" departLane="-360446682#0_2" departPos="4.60" departPosLat="0.00" departSpeed="0.00" departDelay="0.01" arrival="148.50" arrivalLane="-416901218#1_2" arrivalPos="57.30" arrivalPosLat="0.00" arrivalSpeed="8.04" duration="114.20" routeLength="484.94" waitingTime="27.90" waitingCount="1" stopTime="0.00" timeLoss="53.97" rerouteNo="0" devices="tripinfo_flow_ew_east_straight.10 routing_flow_ew_east_straight.10" vType="car_conservative" speedFactor="0.90" vaporized=""/>
    <tripinfo id="flow_ew_west_straight.2" depart="6.90" departLane="-157781953#2_1" departPos="4.60" departPosLat="0.00" departSpeed="0.00" departDelay="0.04" arrival="149.50" arrivalLane="417034218#1_1" arrivalPos="51.54" arrivalPosLat="0.00" arrivalSpeed="7.31" duration="142.60" routeLength="480.39" waitingTime="59.20" waitingCount="1" stopTime="0.00" timeLoss="77.46" rerouteNo="0" devices="tripinfo_flow_ew_west_straight.2 routing_flow_ew_west_straight.2" vType="car_conservative" speedFactor="0.83" vaporized=""/>
    <tripinfo id="flow_ew_east_straight.11" depart="37.80" departLane="-360446682#0_1" departPos="4.60" departPosLat="0.00" departSpeed="0.00" departDelay="0.08" arrival="150.00" arrivalLane="-416901218#1_2" arrivalPos="57.30" arrivalPosLat="0.00" arrivalSpeed="9.49" duration="112.20" routeLength="484.94" waitingTime="27.30" waitingCount="1" stopTime="0.00" timeLoss="61.14" rerouteNo="0" devices="tripinfo_flow_ew_east_straight.11 routing_flow_ew_east_straight.11" vType="car_aggressive" speedFactor="1.06" vaporized=""/>
    <tripinfo id="flow_ew_west_straight.6" depart="20.80" departLane="-157781953#2_2" departPos="8.60" departPosLat="0.00" departSpeed="0.00" departDelay="0.23" arrival="150.70" arrivalLane="417034218#1_2" arrivalPos="51.54" arrivalPosLat="0.00" arrivalSpeed="9.00" duration="129.90" routeLength="476.39" waitingTime="54.50" waitingCount="1" stopTime="0.00" timeLoss="77.10" rerouteNo="0" devices="tripinfo_flow_ew_west_straight.6 routing_flow_ew_west_straight.6" vType="truck_delivery" speedFactor="1.01" vaporized=""/>
    <tripinfo id="flow_ew_west_straight.4" depart="13.80" departLane="-157781953#2_1" departPos="4.60" departPosLat="0.00" departSpeed="0.00" departDelay="0.08" arrival="151.30" arrivalLane="417034218#1_1" arrivalPos="51.54" arrivalPosLat="0.00" arrivalSpeed="10.09" duration="137.50" routeLength="480.39" waitingTime="57.80" waitingCount="1" stopTime="0.00" timeLoss="89.95" rerouteNo="0" devices="tripinfo_flow_ew_west_straight.4 routing_flow_ew_west_straight.4" vType="car_normal" speedFactor="1.13" vaporized=""/>
    <tripinfo id="flow_ew_east_straight.9" depart="30.90" departLane="-360446682#0_1" departPos="4.60" departPosLat="0.00" departSpeed="0.00" departDelay="0.04" arrival="151.90" arrivalLane="-416901218#1_2" arrivalPos="57.30" arrivalPosLat="0.00" arrivalSpeed="9.20" duration="121.00" routeLength="484.94" waitingTime="24.50" waitingCount="1" stopTime="0.00" timeLoss="68.65" rerouteNo="0" devices="tripinfo_flow_ew_east_straight.9 routing_flow_ew_east_straight.9" vType="car_normal" speedFactor="1.04" vaporized=""/>
    <tripinfo id="flow_ew_west_straight.11" depart="37.80" departLane="-157781953#2_1" departPos="4.60" departPosLat="0.00" departSpeed="0.00" departDelay="0.08" arrival="152.60" arrivalLane="417034218#1_1" arrivalPos="51.54" arrivalPosLat="-0.00" arrivalSpeed="10.33" duration="114.80" routeLength="480.39" waitingTime="47.80" waitingCount="2" stopTime="0.00" timeLoss="68.75" rerouteNo="0" devices="tripinfo_flow_ew_west_straight.11 routing_flow_ew_west_straight.11" vType="car_aggressive" speedFactor="1.17" vaporized=""/>
    <tripinfo id="flow_ew_west_straight.8" depart="27.50" departLane="-157781953#2_2" departPos="5.00" departPosLat="0.00" departSpeed="0.00" departDelay="0.07" arrival="153.50" arrivalLane="417034218#1_2" arrivalPos="51.54" arrivalPosLat="-0.00" arrivalSpeed="9.50" duration="126.00" routeLength="479.99" waitingTime="52.20" waitingCount="1" stopTime="0.00" timeLoss="75.55" rerouteNo="0" devices="tripinfo_flow_ew_west_straight.8 routing_flow_ew_west_straight.8" vType="suv_conservative" speedFactor="1.07" vaporized=""/>
    <tripinfo id="flow_ew_east_straight.13" depart="45.80" departLane="-360446682#0_1" departPos="4.60" departPosLat="0.00" departSpeed="0.00" departDelay="1.22" arrival="153.60" arrivalLane="-416901218#1_1" arrivalPos="57.30" arrivalPosLat="0.00" arrivalSpeed="9.09" duration="107.80" routeLength="484.94" waitingTime="17.10" waitingCount="1" stopTime="0.00" timeLoss="54.81" rerouteNo="0" devices="tripinfo_flow_ew_east_straight.13 routing_flow_ew_east_straight.13" vType="car_conservative" speedFactor="1.02" vaporized=""/>
    <tripinfo id="flow_ew_west_straight.13" depart="44.60" departLane="-157781953#2_1" departPos="4.60" departPosLat="0.00" departSpeed="0.00" departDelay="0.02" arrival="155.40" arrivalLane="417034218#1_1" arrivalPos="51.54" arrivalPosLat="0.00" arrivalSpeed="8.90" duration="110.80" routeLength="480.39" waitingTime="31.00" waitingCount="2" stopTime="0.00" timeLoss="56.83" rerouteNo="0" devices="tripinfo_flow_ew_west_straight.13 routing_flow_ew_west_straight.13" vType="car_conservative" speedFactor="1.00" vaporized=""/>
    <tripinfo id="flow_ew_east_straight.12" depart="41.20" departLane="-360446682#0_2" departPos="16.60" departPosLat="0.00" departSpeed="0.00" departDelay="0.05" arrival="155.60" arrivalLane="-416901218#1_2" arrivalPos="57.30" arrivalPosLat="-1.55" arrivalSpeed="8.48" duration="114.40" routeLength="472.94" waitingTime="21.90" waitingCount="4" stopTime="0.00" timeLoss="58.66" rerouteNo="0" devices="tripinfo_flow_ew_east_straight.12 routing_flow_ew_east_straight.12" vType="semi_truck" speedFactor="0.95" vaporized=""/>
    <tripinfo id="flow_ew_west_right.3" depart="57.70" departLane="-157781953#2_1" departPos="4.60" departPosLat="0.00" departSpeed="0.00" departDelay="0.86" arrival="155.80" arrivalLane="157782193#2_1" arrivalPos="52.61" arrivalPosLat="-0.00" arrivalSpeed="14.59" duration="98.10" routeLength="489.77" waitingTime="17.20" waitingCount="2" stopTime="0.00" timeLoss="52.95" rerouteNo="0" devices="tripinfo_flow_ew_west_right.3 routing_flow_ew_west_right.3" vType="car_normal" speedFactor="1.06" vaporized=""/>
    <tripinfo id="flow_ew_west_straight.14" depart="48.10" departLane="-157781953#2_1" departPos="4.60" departPosLat="0.00" departSpeed="0.00" departDelay="0.09" arrival="157.80" arrivalLane="417034218#1_1" arrivalPos="51.54" arrivalPosLat="0.00" arrivalSpeed="8.46" duration="109.70" routeLength="480.39" waitingTime="27.70" waitingCount="2" stopTime="0.00" timeLoss="53.72" rerouteNo="0" devices="tripinfo_flow_ew_west_straight.14 routing_flow_ew_west_straight.14" vType="car_normal" speedFactor="0.96" vaporized=""/>
    <tripinfo id="flow_ew_east_straight.17" depart="58.30" departLane="-360446682#0_2" departPos="4.60" departPosLat="0.00" departSpeed="0.00" departDelay="0.01" arrival="158.60" arrivalLane="-416901218#1_2" arrivalPos="57.30" arrivalPosLat="0.87" arrivalSpeed="9.90" duration="100.30" routeLength="484.94" waitingTime="20.00" waitingCount="2" stopTime="0.00" timeLoss="51.71" rerouteNo="0" devices="tripinfo_flow_ew_east_straight.17 routing_flow_ew_east_straight.17" vType="car_normal" speedFactor="1.12" vaporized=""/>
    <tripinfo id="flow_ew_west_straight.9" depart="30.90" departLane="-157781953#2_1" departPos="5.00" departPosLat="0.00" departSpeed="0.00" departDelay="0.04" arrival="159.00" arrivalLane="417034218#1_2" arrivalPos="51.54" arrivalPosLat="0.00" arrivalSpeed="6.79" duration="128.10" routeLength="479.99" waitingTime="51.60" waitingCount="1" stopTime="0.00" timeLoss="58.38" rerouteNo="0" devices="tripinfo_flow_ew_west_straight.9 routing_flow_ew_west_straight.9" vType="suv_aggressive" speedFactor="0.77" vaporized=""/>
    <tripinfo id="flow_ew_east_straight.15" depart="51.50" departLane="-360446682#0_2" departPos="4.60" departPosLat="0.00" departSpeed="0.00" departDelay="0.07" arrival="159.10" arrivalLane="-416901218#1_2" arrivalPos="57.30" arrivalPosLat="-1.53" arrivalSpeed="7.93" duration="107.60" routeLength="484.94" waitingTime="19.60" waitingCount="1" stopTime="0.00" timeLoss="47.73" rerouteNo="0" devices="tripinfo_flow_ew_east_straight.15 routing_flow_ew_east_straight.15" vType="car_aggressive" speedFactor="0.91" vaporized=""/>
    <tripinfo id="flow_ew_west_straight.12" depart="41.20" departLane="-157781953#2_2" departPos="5.90" departPosLat="0.00" departSpeed="0.00" departDelay="0.05" arrival="161.10" arrivalLane="417034218#1_2" arrivalPos="51.54" arrivalPosLat="0.00" arrivalSpeed="8.54" duration="119.90" routeLength="479.09" waitingTime="40.60" waitingCount="2" stopTime="0.00" timeLoss="64.15" rerouteNo="0" devices="tripinfo_flow_ew_west_straight.12 routing_flow_ew_west_straight.12" vType="pickup_normal" speedFactor="0.96" vaporized=""/>