<?xml version="1.0" encoding="UTF-8"?>

<!-- generated on 2026-02-13 13:47:07 by Eclipse SUMO GUI Version 1.23.1
<sumoConfiguration xmlns:xsi="http://www.w3.org/2001/XMLSchema-instance" xsi:noNamespaceSchemaLocation="http://sumo.dlr.de/xsd/sumoConfiguration.xsd">

    <input>
        <net-file value="/home/yilinwang/San Jose GTC Demo/san_jose_downtown_gtc/osm_modified.net.xml"/>
        <route-files value="/home/yilinwang/San Jose GTC Demo/san_jose_downtown_gtc/directional_traffic.rou.xml"/>
        <additional-files value="/home/yilinwang/San Jose GTC Demo/san_jose_downtown_gtc/osm.poly.xml.gz,/home/yilinwang/San Jose GTC Demo/san_jose_downtown_gtc/ osm_new.tls.xml"/>
    </input>

    <output>
        <tripinfo-output value="/home/yilinwang/San Jose GTC Demo/traffic_data_analysis/delay_result/tripinfo_bench_EB_thr_obstacle.xml"/>
        <statistic-output value="/home/yilinwang/San Jose GTC Demo/traffic_data_analysis/delay_result/statistic_bench_EB_thr_obstacle.xml"/>
    </output>

    <time>
        <end value="1800"/>
        <step-length value="0.1"/>
    </time>

    <processing>
        <lateral-resolution value="0.2"/>
        <ignore-route-errors value="true"/>
        <time-to-teleport value="-1"/>
        <tls.actuated.jam-threshold value="30"/>
    </processing>

    <routing>
        <device.rerouting.probability value="1.0"/>
        <device.rerouting.period value="30"/>
        <device.rerouting.pre-period value="0"/>
        <device.rerouting.adaptation-steps value="18"/>
        <device.rerouting.adaptation-interval value="10"/>
        <device.rerouting.with-taz value="false"/>
    </routing>

    <report>
        <verbose value="true"/>
        <duration-log.statistics value="true"/>
        <no-step-log value="true"/>
    </report>

    <traci_server>
        <remote-port value="48645"/>
    </traci_server>

    <gui_only>
        <gui-settings-file value="/home/yilinwang/San Jose GTC Demo/san_jose_downtown_gtc/osm.view.xml"/>
        <quit-on-end value="true"/>
        <start value="true"/>
        <delay value="40"/>
        <window-size value="1920,1440"/>
    </gui_only>

</sumoConfiguration>
-->

<tripinfos xmlns:xsi="http://www.w3.org/2001/XMLSchema-instance" xsi:noNamespaceSchemaLocation="http://sumo.dlr.de/xsd/tripinfo_file.xsd">
    <tripinfo id="flow_ew_east_right.0" depart="2.70" departLane="-360446682#0_1" departPos="4.60" departPosLat="0.00" departSpeed="0.00" departDelay="2.70" arrival="54.90" arrivalLane="417034088#0_1" arrivalPos="26.74" arrivalPosLat="0.00" arrivalSpeed="14.07" duration="52.20" routeLength="419.49" waitingTime="0.00" waitingCount="0" stopTime="0.00" timeLoss="10.41" rerouteNo="0" devices="tripinfo_flow_ew_east_right.0 routing_flow_ew_east_right.0" vType="car_conservative" speedFactor="1.01" vaporized=""/>
    <tripinfo id="flow_ew_east_straight.0" depart="0.00" departLane="-360446682#0_1" departPos="4.60" departPosLat="0.00" departSpeed="0.00" departDelay="0.00" arrival="66.60" arrivalLane="-416901218#1_1" arrivalPos="57.30" arrivalPosLat="0.00" arrivalSpeed="7.87" duration="66.60" routeLength="484.94" waitingTime="0.20" waitingCount="1" stopTime="0.00" timeLoss="5.37" rerouteNo="0" devices="tripinfo_flow_ew_east_straight.0 routing_flow_ew_east_straight.0" vType="car_normal" speedFactor="0.89" vaporized=""/>
    <tripinfo id="flow_ns_north_left.0" depart="0.00" departLane="-417034088#0_2" departPos="4.60" departPosLat="0.00" departSpeed="0.00" departDelay="0.00" arrival="75.10" arrivalLane="417034218#1_1" arrivalPos="51.54" arrivalPosLat="0.00" arrivalSpeed="7.98" duration="75.10" routeLength="294.86" waitingTime="37.30" waitingCount="1" stopTime="0.00" timeLoss="44.15" rerouteNo="0" devices="tripinfo_flow_ns_north_left.0 routing_flow_ns_north_left.0" vType="car_conservative" speedFactor="0.90" vaporized=""/>
    <tripinfo id="flow_ns_south_left.0" depart="0.00" departLane="-157782193#2_1" departPos="5.00" departPosLat="0.00" departSpeed="0.00" departDelay="0.00" arrival="75.80" arrivalLane="-416901218#1_1" arrivalPos="57.30" arrivalPosLat="0.00" arrivalSpeed="8.31" duration="75.80" routeLength="370.43" waitingTime="31.50" waitingCount="1" stopTime="0.00" timeLoss="40.06" rerouteNo="0" devices="tripinfo_flow_ns_south_left.0 routing_flow_ns_south_left.0" vType="suv_normal" speedFactor="0.94" vaporized=""/>
    <tripinfo id="flow_ns_south_straight.0" depart="0.00" departLane="-157782193#0_1" departPos="4.60" departPosLat="0.00" departSpeed="0.00" departDelay="0.00" arrival="80.20" arrivalLane="417034088#0_1" arrivalPos="26.74" arrivalPosLat="0.00" arrivalSpeed="15.15" duration="80.20" routeLength="250.67" waitingTime="55.40" waitingCount="1" stopTime="0.00" timeLoss="63.70" rerouteNo="0" devices="tripinfo_flow_ns_south_straight.0 routing_flow_ns_south_straight.0" vType="car_conservative" speedFactor="1.10" vaporized=""/>
    <tripinfo id="flow_ns_south_straight.1" depart="40.00" departLane="-157782193#0_1" departPos="5.00" departPosLat="0.00" departSpeed="0.00" departDelay="0.00" arrival="80.70" arrivalLane="417034088#0_2" arrivalPos="26.74" arrivalPosLat="0.00" arrivalSpeed="15.24" duration="40.70" routeLength="249.82" waitingTime="10.90" waitingCount="1" stopTime="0.00" timeLoss="24.28" rerouteNo="0" devices="tripinfo_flow_ns_south_straight.1 routing_flow_ns_south_straight.1" vType="suv_conservative" speedFactor="1.10" vaporized=""/>
    <tripinfo id="flow_ns_north_straight.0" depart="0.00" departLane="-417034088#0_1" departPos="10.60" departPosLat="0.00" departSpeed="0.00" departDelay="0.00" arrival="82.80" arrivalLane="157782193#0_1" arrivalPos="48.72" arrivalPosLat="0.00" arrivalSpeed="13.89" duration="82.80" routeLength="243.67" waitingTime="49.90" waitingCount="1" stopTime="0.00" timeLoss="65.25" rerouteNo="0" devices="tripinfo_flow_ns_north_straight.0 routing_flow_ns_north_straight.0" vType="bus_school" speedFactor="1.00" vaporized=""/>
    <tripinfo id="flow_ns_north_straight.1" depart="36.00" departLane="-417034088#0_1" departPos="16.60" departPosLat="0.00" departSpeed="0.00" departDelay="0.00" arrival="88.00" arrivalLane="157782193#0_1" arrivalPos="48.72" arrivalPosLat="0.00" arrivalSpeed="13.03" duration="52.00" routeLength="237.67" waitingTime="9.50" waitingCount="1" stopTime="0.00" timeLoss="33.70" rerouteNo="0" devices="tripinfo_flow_ns_north_straight.1 routing_flow_ns_north_straight.1" vType="semi_truck" speedFactor="0.94" vaporized=""/>
    <tripinfo id="flow_ns_south_right.0" depart="2.60" departLane="-157782193#0_1" departPos="5.00" departPosLat="0.00" departSpeed="0.00" departDelay="2.60" arrival="89.90" arrivalLane="417034218#1_1" arrivalPos="51.54" arrivalPosLat="0.00" arrivalSpeed="9.06" duration="87.30" routeLength="267.77" waitingTime="47.70" waitingCount="1" stopTime="0.00" timeLoss="61.75" rerouteNo="0" devices="tripinfo_flow_ns_south_right.0 routing_flow_ns_south_right.0" vType="suv_normal" speedFactor="1.02" vaporized=""/>
    <tripinfo id="flow_ns_north_right.0" depart="3.60" departLane="-417034088#0_1" departPos="4.60" departPosLat="0.00" departSpeed="0.00" departDelay="3.60" arrival="93.40" arrivalLane="-416901218#1_1" arrivalPos="57.30" arrivalPosLat="0.00" arrivalSpeed="8.45" duration="89.80" routeLength="285.15" waitingTime="45.40" waitingCount="1" stopTime="0.00" timeLoss="60.83" rerouteNo="0" devices="tripinfo_flow_ns_north_right.0 routing_flow_ns_north_right.0" vType="car_normal" speedFactor="0.95" vaporized=""/>
    <tripinfo id="flow_ns_north_straight.2" depart="72.00" departLane="-417034088#0_1" departPos="16.60" departPosLat="0.00" departSpeed="0.00" departDelay="0.00" arrival="97.00" arrivalLane="157782193#0_1" arrivalPos="48.72" arrivalPosLat="0.00" arrivalSpeed="13.48" duration="25.00" routeLength="237.67" waitingTime="0.00" waitingCount="0" stopTime="0.00" timeLoss="7.39" rerouteNo="0" devices="tripinfo_flow_ns_north_straight.2 routing_flow_ns_north_straight.2" vType="semi_truck" speedFactor="0.97" vaporized=""/>
    <tripinfo id="flow_ns_south_straight.2" depart="80.00" departLane="-157782193#0_1" departPos="4.60" departPosLat="0.00" departSpeed="0.00" departDelay="0.00" arrival="102.50" arrivalLane="417034088#0_1" arrivalPos="26.74" arrivalPosLat="0.00" arrivalSpeed="13.30" duration="22.50" routeLength="250.67" waitingTime="0.00" waitingCount="0" stopTime="0.00" timeLoss="3.86" rerouteNo="0" devices="tripinfo_flow_ns_south_straight.2 routing_flow_ns_south_straight.2" vType="car_aggressive" speedFactor="0.97" vaporized=""/>
    <tripinfo id="flow_ew_west_left.0" depart="0.00" departLane="-157781953#2_2" departPos="5.00" departPosLat="0.00" departSpeed="0.00" departDelay="0.00" arrival="115.40" arrivalLane="417034088#0_1" arrivalPos="26.74" arrivalPosLat="0.00" arrivalSpeed="15.05" duration="115.40" routeLength="440.41" waitingTime="62.50" waitingCount="2" stopTime="0.00" timeLoss="75.10" rerouteNo="0" devices="tripinfo_flow_ew_west_left.0 routing_flow_ew_west_left.0" vType="suv_normal" speedFactor="1.09" vaporized=""/>
    <tripinfo id="flow_ew_west_left.1" depart="45.00" departLane="-157781953#2_2" departPos="4.60" departPosLat="0.00" departSpeed="0.00" departDelay="0.00" arrival="122.10" arrivalLane="417034088#0_1" arrivalPos="26.74" arrivalPosLat="0.00" arrivalSpeed="15.43" duration="77.10" routeLength="440.81" waitingTime="22.30" waitingCount="1" stopTime="0.00" timeLoss="37.77" rerouteNo="0" devices="tripinfo_flow_ew_west_left.1 routing_flow_ew_west_left.1" vType="car_aggressive" speedFactor="1.12" vaporized=""/>
    <tripinfo id="flow_ew_east_left.0" depart="0.00" departLane="-360446682#0_2" departPos="5.00" departPosLat="0.00" departSpeed="0.00" departDelay="0.00" arrival="122.20" arrivalLane="157782193#2_1" arrivalPos="52.61" arrivalPosLat="0.00" arrivalSpeed="11.64" duration="122.20" routeLength="501.41" waitingTime="58.40" waitingCount="1" stopTime="0.00" timeLoss="65.05" rerouteNo="0" devices="tripinfo_flow_ew_east_left.0 routing_flow_ew_east_left.0" vType="suv_conservative" speedFactor="0.84" vaporized=""/>
    <tripinfo id="flow_ew_east_left.1" depart="24.00" departLane="-360446682#0_2" departPos="5.00" departPosLat="0.00" departSpeed="0.00" departDelay="0.00" arrival="124.40" arrivalLane="157782193#2_1" arrivalPos="52.61" arrivalPosLat="0.00" arrivalSpeed="13.01" duration="100.40" routeLength="501.41" waitingTime="13.80" waitingCount="1" stopTime="0.00" timeLoss="49.17" rerouteNo="0" devices="tripinfo_flow_ew_east_left.1 routing_flow_ew_east_left.1" vType="suv_conservative" speedFactor="0.94" vaporized=""/>
    <tripinfo id="flow_ew_east_right.1" depart="20.00" departLane="-360446682#0_1" departPos="4.60" departPosLat="0.00" departSpeed="0.00" departDelay="0.00" arrival="135.50" arrivalLane="417034088#0_1" arrivalPos="26.74" arrivalPosLat="0.00" arrivalSpeed="13.78" duration="115.50" routeLength="419.49" waitingTime="37.20" waitingCount="2" stopTime="0.00" timeLoss="72.97" rerouteNo="0" devices="tripinfo_flow_ew_east_right.1 routing_flow_ew_east_right.1" vType="car_aggressive" speedFactor="0.99" vaporized=""/>
    <tripinfo id="flow_ew_west_right.0" depart="2.60" departLane="-157781953#2_1" departPos="4.60" departPosLat="0.00" departSpeed="0.00" departDelay="2.60" arrival="136.80" arrivalLane="157782193#2_1" arrivalPos="52.61" arrivalPosLat="0.00" arrivalSpeed="15.50" duration="134.20" routeLength="489.77" waitingTime="67.10" waitingCount="2" stopTime="0.00" timeLoss="91.74" rerouteNo="0" devices="tripinfo_flow_ew_west_right.0 routing_flow_ew_west_right.0" vType="car_normal" speedFactor="1.12" vaporized=""/>
    <tripinfo id="flow_ew_east_straight.2" depart="6.90" departLane="-360446682#0_1" departPos="4.60" departPosLat="0.00" departSpeed="0.00" departDelay="0.04" arrival="137.70" arrivalLane="-416901218#1_1" arrivalPos="57.30" arrivalPosLat="0.00" arrivalSpeed="9.22" duration="130.80" routeLength="484.94" waitingTime="67.20" waitingCount="1" stopTime="0.00" timeLoss="78.58" rerouteNo="0" devices="tripinfo_flow_ew_east_straight.2 routing_flow_ew_east_straight.2" vType="car_normal" speedFactor="1.04" vaporized=""/>
    <tripinfo id="flow_ew_east_straight.3" depart="10.70" departLane="-360446682#0_1" departPos="12.10" departPosLat="0.00" departSpeed="0.00" departDelay="0.41" arrival="141.70" arrivalLane="-416901218#1_1" arrivalPos="57.30" arrivalPosLat="0.00" arrivalSpeed="8.94" duration="131.00" routeLength="477.44" waitingTime="50.40" waitingCount="3" stopTime="0.00" timeLoss="77.54" rerouteNo="0" devices="tripinfo_flow_ew_east_straight.3 routing_flow_ew_east_straight.3" vType="bus_transit" speedFactor="1.00" vaporized=""/>
    <tripinfo id="flow_ew_west_straight.1" depart="3.50" departLane="-157781953#2_2" departPos="4.60" departPosLat="0.00" departSpeed="0.00" departDelay="0.07" arrival="142.80" arrivalLane="417034218#1_2" arrivalPos="51.54" arrivalPosLat="0.00" arrivalSpeed="8.71" duration="139.30" routeLength="480.39" waitingTime="70.10" waitingCount="2" stopTime="0.00" timeLoss="84.19" rerouteNo="0" devices="tripinfo_flow_ew_west_straight.1 routing_flow_ew_west_straight.1" vType="car_normal" speedFactor="0.97" vaporized=""/>
    <tripinfo id="flow_ew_west_right.1" depart="19.00" departLane="-157781953#2_1" departPos="5.00" departPosLat="0.00" departSpeed="0.00" departDelay="0.05" arrival="142.90" arrivalLane="157782193#2_1" arrivalPos="52.61" arrivalPosLat="0.00" arrivalSpeed="15.51" duration="123.90" routeLength="489.37" waitingTime="55.30" waitingCount="1" stopTime="0.00" timeLoss="81.51" rerouteNo="0" devices="tripinfo_flow_ew_west_right.1 routing_flow_ew_west_right.1" vType="suv_conservative" speedFactor="1.12" vaporized=""/>
    <tripinfo id="flow_ew_west_straight.0" depart="0.00" departLane="-157781953#2_1" departPos="5.00" departPosLat="0.00" departSpeed="0.00" departDelay="0.00" arrival="143.20" arrivalLane="417034218#1_1" arrivalPos="51.54" arrivalPosLat="-0.35" arrivalSpeed="8.20" duration="143.20" routeLength="479.99" waitingTime="76.60" waitingCount="2" stopTime="0.00" timeLoss="84.95" rerouteNo="0" devices="tripinfo_flow_ew_west_straight.0 routing_flow_ew_west_straight.0" vType="suv_conservative" speedFactor="0.92" vaporized=""/>
    <tripinfo id="flow_ew_west_straight.10" depart="34.30" departLane="-157781953#2_2" departPos="2.30" departPosLat="0.00" departSpeed="0.00" departDelay="0.01" arrival="143.30" arrivalLane="417034218#1_1" arrivalPos="51.54" arrivalPosLat="1.72" arrivalSpeed="9.05" duration="109.00" routeLength="482.69" waitingTime="44.60" waitingCount="2" stopTime="0.00" timeLoss="56.02" rerouteNo="0" devices="tripinfo_flow_ew_west_straight.10 routing_flow_ew_west_straight.10" vType="motorcycle_normal" speedFactor="1.02" vaporized=""/>
    <tripinfo id="flow_ew_east_right.2" depart="42.10" departLane="-360446682#0_1" departPos="12.10" departPosLat="0.00" departSpeed="0.00" departDelay="2.10" arrival="144.80" arrivalLane="417034088#0_1" arrivalPos="26.74" arrivalPosLat="0.00" arrivalSpeed="13.88" duration="102.70" routeLength="411.99" waitingTime="26.20" waitingCount="2" stopTime="0.00" timeLoss="61.16" rerouteNo="0" devices="tripinfo_flow_ew_east_right.2 routing_flow_ew_east_right.2" vType="bus_transit" speedFactor="1.00" vaporized=""/>
    <tripinfo id="flow_ew_east_straight.4" depart="14.50" departLane="-360446682#0_1" departPos="4.60" departPosLat="0.00" departSpeed="0.00" departDelay="0.78" arrival="145.10" arrivalLane="-416901218#1_1" arrivalPos="57.30" arrivalPosLat="0.00" arrivalSpeed="9.19" duration="130.60" routeLength="484.94" waitingTime="39.10" waitingCount="2" stopTime="0.00" timeLoss="78.00" rerouteNo="0" devices="tripinfo_flow_ew_east_straight.4 routing_flow_ew_east_straight.4" vType="car_conservative" speedFactor="1.03" vaporized=""/>
    <tripinfo id="flow_ew_west_straight.7" depart="24.10" departLane="-157781953#2_1" departPos="2.30" departPosLat="0.00" departSpeed="0.00" departDelay="0.10" arrival="146.30" arrivalLane="417034218#1_2" arrivalPos="51.54" arrivalPosLat="-1.49" arrivalSpeed="7.36" duration="122.20" routeLength="482.69" waitingTime="43.00" waitingCount="2" stopTime="0.00" timeLoss="57.53" rerouteNo="0" devices="tripinfo_flow_ew_west_straight.7 routing_flow_ew_west_straight.7" vType="motorcycle_normal" speedFactor="0.83" vaporized=""/>
    <tripinfo id="flow_ew_west_straight.3" depart="10.30" departLane="-157781953#2_2" departPos="4.60" departPosLat="0.00" departSpeed="0.00" departDelay="0.01" arrival="146.60" arrivalLane="417034218#1_2" arrivalPos="51.54" arrivalPosLat="0.00" arrivalSpeed="7.78" duration="136.30" routeLength="480.39" waitingTime="59.30" waitingCount="1" stopTime="0.00" timeLoss="74.63" rerouteNo="0" devices="tripinfo_flow_ew_west_straight.3 routing_flow_ew_west_straight.3" vType="car_conservative" speedFactor="0.87" vaporized=""/>
    <tripinfo id="flow_ew_west_right.2" depart="40.60" departLane="-157781953#2_1" departPos="5.00" departPosLat="0.00" departSpeed="0.00" departDelay="2.71" arrival="147.00" arrivalLane="157782193#2_1" arrivalPos="52.61" arrivalPosLat="0.00" arrivalSpeed="14.47" duration="106.40" routeLength="489.37" waitingTime="42.70" waitingCount="2" stopTime="0.00" timeLoss="61.03" rerouteNo="0" devices="tripinfo_flow_ew_west_right.2 routing_flow_ew_west_right.2" vType="suv_normal" speedFactor="1.05" vaporized=""/>
    <tripinfo id="flow_ew_east_straight.7" depart="24.10" departLane="-360446682#0_1" departPos="5.00" departPosLat="0.00" departSpeed="0.00" departDelay="0.10" arrival="147.50" arrivalLane="-416901218#1_1" arrivalPos="57.30" arrivalPosLat="0.00" arrivalSpeed="9.83" duration="123.40" routeLength="484.54" waitingTime="29.80" waitingCount="1" stopTime="0.00" timeLoss="74.22" rerouteNo="0" devices="tripinfo_flow_ew_east_straight.7 routing_flow_ew_east_straight.7" vType="suv_conservative" speedFactor="1.10" vaporized=""/>
    <tripinfo id="flow_ew_west_straight.5" depart="17.20" departLane="-157781953#2_2" departPos="4.60" departPosLat="0.00" departSpeed="0.00" departDelay="0.06" arrival="148.00" arrivalLane="417034218#1_2" arrivalPos="51.54" arrivalPosLat="0.00" arrivalSpeed="10.25" duration="130.80" routeLength="480.39" waitingTime="58.60" waitingCount="1" stopTime="0.00" timeLoss="84.18" rerouteNo="0" devices="tripinfo_flow_ew_west_straight.5 routing_flow_ew_west_straight.5" vType="car_aggressive" speedFactor="1.15" vaporized=""/>
    <tripinfo id="flow_ew_west_straight.2" depart="6.90" departLane="-157781953#2_1" departPos="4.60" departPosLat="0.00" departSpeed="0.00" departDelay="0.04" arrival="149.40" arrivalLane="417034218#1_1" arrivalPos="51.54" arrivalPosLat="0.00" arrivalSpeed="7.33" duration="142.50" routeLength="480.39" waitingTime="59.20" waitingCount="1" stopTime="0.00" timeLoss="77.42" rerouteNo="0" devices="tripinfo_flow_ew_west_straight.2 routing_flow_ew_west_straight.2" vType="car_conservative" speedFactor="0.83" vaporized=""/>
    <tripinfo id="flow_ew_east_straight.9" depart="30.90" departLane="-360446682#0_1" departPos="4.60" departPosLat="0.00" departSpeed="0.00" departDelay="0.04" arrival="149.70" arrivalLane="-416901218#1_1" arrivalPos="57.30" arrivalPosLat="-0.00" arrivalSpeed="9.24" duration="118.80" routeLength="484.94" waitingTime="28.80" waitingCount="1" stopTime="0.00" timeLoss="66.47" rerouteNo="0" devices="tripinfo_flow_ew_east_straight.9 routing_flow_ew_east_straight.9" vType="car_normal" speedFactor="1.04" vaporized=""/>
    <tripinfo id="flow_ew_west_straight.6" depart="20.80" departLane="-157781953#2_2" departPos="8.60" departPosLat="0.00" departSpeed="0.00" departDelay="0.23" arrival="150.90" arrivalLane="417034218#1_2" arrivalPos="51.54" arrivalPosLat="0.00" arrivalSpeed="9.01" duration="130.10" routeLength="476.39" waitingTime="54.50" waitingCount="1" stopTime="0.00" timeLoss="77.33" rerouteNo="0" devices="tripinfo_flow_ew_west_straight.6 routing_flow_ew_west_straight.6" vType="truck_delivery" speedFactor="1.01" vaporized=""/>
    <tripinfo id="flow_ew_west_straight.4" depart="13.80" departLane="-157781953#2_1" departPos="4.60" departPosLat="0.00" departSpeed="0.00" departDelay="0.08" arrival="151.20" arrivalLane="417034218#1_1" arrivalPos="51.54" arrivalPosLat="0.00" arrivalSpeed="10.03" duration="137.40" routeLength="480.39" waitingTime="57.80" waitingCount="1" stopTime="0.00" timeLoss="89.91" rerouteNo="0" devices="tripinfo_flow_ew_west_straight.4 routing_flow_ew_west_straight.4" vType="car_normal" speedFactor="1.13" vaporized=""/>
    <tripinfo id="flow_ew_east_straight.11" depart="37.80" departLane="-360446682#0_1" departPos="4.60" departPosLat="0.00" departSpeed="0.00" departDelay="0.08" arrival="151.20" arrivalLane="-416901218#1_1" arrivalPos="57.30" arrivalPosLat="-0.00" arrivalSpeed="9.50" duration="113.40" routeLength="484.94" waitingTime="28.30" waitingCount="1" stopTime="0.00" timeLoss="62.32" rerouteNo="0" devices="tripinfo_flow_ew_east_straight.11 routing_flow_ew_east_straight.11" vType="car_aggressive" speedFactor="1.06" vaporized=""/>
    <tripinfo id="flow_ew_west_straight.11" depart="37.80" departLane="-157781953#2_1" departPos="4.60" departPosLat="0.00" departSpeed="0.00" departDelay="0.08" arrival="152.50" arrivalLane="417034218#1_1" arrivalPos="51.54" arrivalPosLat="-0.00" arrivalSpeed="10.34" duration="114.70" routeLength="480.39" waitingTime="47.60" waitingCount="2" stopTime="0.00" timeLoss="68.71" rerouteNo="0" devices="tripinfo_flow_ew_west_straight.11 routing_flow_ew_west_straight.11" vType="car_aggressive" speedFactor="1.17" vaporized=""/>
    <tripinfo id="flow_ew_west_straight.8" depart="27.50" departLane="-157781953#2_2" departPos="5.00" departPosLat="0.00" departSpeed="0.00" departDelay="0.07" arrival="153.70" arrivalLane="417034218#1_2" arrivalPos="51.54" arrivalPosLat="-0.00" arrivalSpeed="9.46" duration="126.20" routeLength="479.99" waitingTime="52.20" waitingCount="1" stopTime="0.00" timeLoss="75.78" rerouteNo="0" devices="tripinfo_flow_ew_west_straight.8 routing_flow_ew_west_straight.8" vType="suv_conservative" speedFactor="1.07" vaporized=""/>
    <tripinfo id="flow_ew_west_straight.13" depart="44.60" departLane="-157781953#2_1" departPos="4.60" departPosLat="0.00" departSpeed="0.00" departDelay="0.02" arrival="155.30" arrivalLane="417034218#1_1" arrivalPos="51.54" arrivalPosLat="0.00" arrivalSpeed="8.86" duration="110.70" routeLength="480.39" waitingTime="30.80" waitingCount="2" stopTime="0.00" timeLoss="56.77" rerouteNo="0" devices="tripinfo_flow_ew_west_straight.13 routing_flow_ew_west_straight.13" vType="car_conservative" speedFactor="1.00" vaporized=""/>
    <tripinfo id="flow_ew_west_right.3" depart="57.70" departLane="-157781953#2_1" departPos="4.60" departPosLat="0.00" departSpeed="0.00" departDelay="0.86" arrival="155.60" arrivalLane="157782193#2_1" arrivalPos="52.61" arrivalPosLat="-0.00" arrivalSpeed="14.59" duration="97.90" routeLength="489.77" waitingTime="17.00" waitingCount="2" stopTime="0.00" timeLoss="52.84" rerouteNo="0" devices="tripinfo_flow_ew_west_right.3 routing_flow_ew_west_right.3" vType="car_normal" speedFactor="1.06" vaporized=""/>
    <tripinfo id="flow_ew_west_straight.14" depart="48.10" departLane="-157781953#2_1" departPos="4.60" departPosLat="0.00" departSpeed="0.00" departDelay="0.09" arrival="157.70" arrivalLane="417034218#1_1" arrivalPos="51.54" arrivalPosLat="0.00" arrivalSpeed="8.52" duration="109.60" routeLength="480.39" waitingTime="27.50" waitingCount="2" stopTime="0.00" timeLoss="53.61" rerouteNo="0" devices="tripinfo_flow_ew_west_straight.14 routing_flow_ew_west_straight.14" vType="car_normal" speedFactor="0.96" vaporized=""/>
    <tripinfo id="flow_ew_west_straight.9" depart="30.90" departLane="-157781953#2_1" departPos="5.00" departPosLat="0.00" departSpeed="0.00" departDelay="0.04" arrival="159.10" arrivalLane="417034218#1_2" arrivalPos="51.54" arrivalPosLat="0.00" arrivalSpeed="6.84" duration="128.20" routeLength="479.99" waitingTime="51.60" waitingCount="1" stopTime="0.00" timeLoss="58.48" rerouteNo="0" devices="tripinfo_flow_ew_west_straight.9 routing_flow_ew_west_straight.9" vType="suv_aggressive" speedFactor="0.77" vaporized=""/>
    <tripinfo id="flow_ew_west_straight.16" depart="54.90" departLane="-157781953#2_1" departPos="5.90" departPosLat="0.00" departSpeed="0.00" departDelay="0.04" arrival="161.00" arrivalLane="417034218#1_1" arrivalPos="51.54" arrivalPosLat="0.00" arrivalSpeed="8.23" duration="106.10" routeLength="479.09" waitingTime="19.60" waitingCount="2" stopTime="0.00" timeLoss="48.28" rerouteNo="0" devices="tripinfo_flow_ew_west_straight.16 routing_flow_ew_west_straight.16" vType="pickup_conservative" speedFactor="0.93" vaporized=""/>
    <tripinfo id="flow_ew_west_straight.12" depart="41.20" departLane="-157781953#2_2" departPos="5.90" departPosLat="0.00" departSpeed="0.00" departDelay="0.05" arrival="161.20" arrivalLane="417034218#1_2" arrivalPos="51.54" arrivalPosLat="0.00" arrivalSpeed="8.57" duration="120.00" routeLength="479.09" waitingTime="40.60" waitingCount="2" stopTime="0.00" timeLoss="64.25" rerouteNo="0" devices="tripinfo_flow_ew_west_straight.12 routing_flow_ew_west_straight.12" vType="pickup_normal" speedFactor="0.96" vaporized=""/>
    <tripinfo id="flow_ew_west_straight.15" depart="51.50" departLane="-157781953#2_2" departPos="4.60" departPosLat="0.00" departSpeed="0.00" departDelay="0.07" arrival="162.70" arrivalLane="417034218#1_1" arrivalPos="51.54" arrivalPosLat="-0.00" arrivalSpeed="8.39" duration="111.20" routeLength="480.39" waitingTime="28.90" waitingCount="2" stopTime="0.00" timeLoss="54.51" rerouteNo="0" devices="tripinfo_flow_ew_west_straight.15 routing_flow_ew_west_straight.15" vType="car_aggressive" speedFactor="0.95" vaporized=""/>
    <tripinfo id="flow_ew_west_straight.17" depart="58.30" departLane="-157781953#2_2" departPos="4.60" departPosLat="0.00" departSpeed="0.00" departDelay="0.01" arrival="164.10" arrivalLane="417034218#1_2" arrivalPos="51.54" arrivalPosLat="0.00" arrivalSpeed="9.15" duration="105.80" routeLength="480.39" waitingTime="20.50" waitingCount="2" stopTime="0.00" timeLoss="53.76" rerouteNo="0" devices="tripinfo_flow_ew_west_straight.17 routing_flow_ew_west_straight.17" vType="car_normal" speedFactor="1.03" vaporized=""/>
    <tripinfo id="flow_ew_west_straight.19" depart="65.20" departLane="-157781953#2_2" departPos="4.60" departPosLat="0.00" departSpeed="0.00" departDelay="0.05" arrival="165.60" arrivalLane="417034218#1_2" arrivalPos="51.54" arrivalPosLat="0.00" arrivalSpeed="9.55" duration="100.40" routeLength="480.39" waitingTime="14.90" waitingCount="2" stopTime="0.00" timeLoss="50.66" rerouteNo="0" devices="tripinfo_flow_ew_west_straight.19 routing_flow_ew_west_straight.19" vType="car_aggressive" speedFactor="1.08" vaporized=""/>
    <tripinfo id="flow_ew_west_straight.21" depart="72.10" departLane="-157781953#2_2" departPos="4.60" departPosLat="0.00" departSpeed="0.00" departDelay="0.09" arrival="167.50" arrivalLane="417034218#1_2" arrivalPos="51.54" arrivalPosLat="0.00" arrivalSpeed="9.34" duration="95.40" routeLength="480.39" waitingTime="8.10" waitingCount="1" stopTime="0.00" timeLoss="44.28" rerouteNo="0" devices="tripinfo_flow_ew_west_straight.21 routing_flow_ew_west_straight.21" vType="car_normal" speedFactor="1.05" vaporized=""/>
    <tripinfo id="flow_ew_west_straight.22" depart="75.50" departLane="-157781953#2_1" departPos="4.60" departPosLat="0.00" departSpeed="0.00" departDelay="0.06" arrival="167.70" arrivalLane="417034218#1_1" arrivalPos="51.54" arrivalPosLat="-0.00" arrivalSpeed="7.67" duration="92.20" routeLength="480.39" waitingTime="2.90" waitingCount="1" stopTime="0.00" timeLoss="29.77" rerouteNo="0" devices="tripinfo_flow_ew_west_straight.22 routing_flow_ew_west_straight.22" vType="car_conservative" speedFactor="0.86" vaporized=""/>
    <tripinfo id="flow_ew_west_straight.18" depart="61.80" departLane="-157781953#2_1" departPos="5.00" departPosLat="0.00" departSpeed="0.00" departDelay="0.08" arrival="170.50" arrivalLane="417034218#1_2" arrivalPos="51.54" arrivalPosLat="0.00" arrivalSpeed="7.98" duration="108.70" routeLength="479.99" waitingTime="14.30" waitingCount="2" stopTime="0.00" timeLoss="48.83" rerouteNo="0" devices="tripinfo_flow_ew_west_straight.18 routing_flow_ew_west_straight.18" vType="suv_normal" speedFactor="0.90" vaporized=""/>
    <tripinfo id="flow_ns_north_left.1" depart="133.40" departLane="-417034088#0_2" departPos="4.60" departPosLat="0.00" departSpeed="0.00" departDelay="0.07" arrival="172.00" arrivalLane="417034218#1_1" arrivalPos="51.54" arrivalPosLat="0.00" arrivalSpeed="9.57" duration="38.60" routeLength="294.86" waitingTime="4.40" waitingCount="1" stopTime="0.00" timeLoss="12.56" rerouteNo="0" devices="tripinfo_flow_ns_north_left.1 routing_flow_ns_north_left.1" vType="car_conservative" speedFactor="1.07" vaporized=""/>
    <tripinfo id="flow_ns_north_straight.3" depart="108.00" departLane="-417034088#0_1" departPos="4.60" departPosLat="0.00" departSpeed="0.00" departDelay="0.00" arrival="179.00" arrivalLane="157782193#0_1" arrivalPos="48.72" arrivalPosLat="-0.00" arrivalSpeed="15.51" duration="71.00" routeLength="249.67" waitingTime="36.30" waitingCount="2" stopTime="0.00" timeLoss="54.90" rerouteNo="0" devices="tripinfo_flow_ns_north_straight.3 routing_flow_ns_north_straight.3" vType="car_conservative" speedFactor="1.12" vaporized=""/>
    <tripinfo id="flow_ns_south_straight.3" depart="120.00" departLane="-157782193#0_1" departPos="4.60" departPosLat="0.00" departSpeed="0.00" departDelay="0.00" arrival="180.20" arrivalLane="417034088#0_1" arrivalPos="26.74" arrivalPosLat="0.00" arrivalSpeed="15.45" duration="60.20" routeLength="250.67" waitingTime="35.50" waitingCount="1" stopTime="0.00" timeLoss="43.96" rerouteNo="0" devices="tripinfo_flow_ns_south_straight.3 routing_flow_ns_south_straight.3" vType="car_conservative" speedFactor="1.11" vaporized=""/>